   41   41  500    2
  0.2657959E+02  0.7543189E-09  0.7543189E-09  0.2211523E-08  0.5000000E-15
  1.000000000000000E-004
  CAR 
 Ni(111) + CH4, PAW 3x3 s.u.c. 4L - Step 
    368     10    241
 
  0.0000000E+00  0.0000000E+00  0.0000000E+00  0.6250000E-01
    1      -11.795269    -11.795368   1.000000   1.000000
    2       -8.007025     -8.047978   1.000000   1.000000
    3       -6.692677     -6.723525   1.000000   1.000000
    4       -5.078259     -5.010353   1.000000   1.000000
    5       -4.979553     -4.907251   1.000000   1.000000
    6       -4.979503     -4.907201   1.000000   1.000000
    7       -4.979489     -4.907190   1.000000   1.000000
    8       -4.979445     -4.907140   1.000000   1.000000
    9       -4.979408     -4.907103   1.000000   1.000000
   10       -4.979375     -4.907075   1.000000   1.000000
   11       -4.417365     -4.245437   1.000000   1.000000
   12       -4.292411     -4.244861   1.000000   1.000000
   13       -4.292395     -4.244744   1.000000   1.000000
   14       -4.292384     -4.114215   1.000000   1.000000
   15       -4.292358     -4.114209   1.000000   1.000000
   16       -4.292334     -4.114183   1.000000   1.000000
   17       -4.292317     -4.114171   1.000000   1.000000
   18       -4.245116     -4.114141   1.000000   1.000000
   19       -4.244596     -4.114117   1.000000   1.000000
   20       -4.244486     -4.084501   1.000000   1.000000
   21       -3.662721     -3.331413   1.000000   1.000000
   22       -3.662702     -3.331399   1.000000   1.000000
   23       -3.662686     -3.331373   1.000000   1.000000
   24       -3.662649     -3.331329   1.000000   1.000000
   25       -3.662630     -3.331301   1.000000   1.000000
   26       -3.662591     -3.331277   1.000000   1.000000
   27       -3.421447     -2.840743   1.000000   1.000000
   28       -3.421427     -2.840736   1.000000   1.000000
   29       -3.421408     -2.840724   1.000000   1.000000
   30       -3.421373     -2.840649   1.000000   1.000000
   31       -3.421350     -2.840637   1.000000   1.000000
   32       -3.421323     -2.840595   1.000000   1.000000
   33       -3.195852     -2.706541   1.000000   1.000000
   34       -3.195833     -2.706482   1.000000   1.000000
   35       -3.195205     -2.661315   1.000000   1.000000
   36       -3.195201     -2.661298   1.000000   1.000000
   37       -3.168149     -2.660891   1.000000   1.000000
   38       -3.168129     -2.660886   1.000000   1.000000
   39       -3.168110     -2.633266   1.000000   1.000000
   40       -3.168077     -2.633238   1.000000   1.000000
   41       -3.168044     -2.633198   1.000000   1.000000
   42       -3.168018     -2.633182   1.000000   1.000000
   43       -3.119645     -2.633166   1.000000   1.000000
   44       -3.119589     -2.633130   1.000000   1.000000
   45       -2.999043     -2.620980   1.000000   1.000000
   46       -2.999031     -2.620967   1.000000   1.000000
   47       -2.997019     -2.619339   1.000000   1.000000
   48       -2.997017     -2.619335   1.000000   1.000000
   49       -2.891198     -2.331328   1.000000   1.000000
   50       -2.891150     -2.331282   1.000000   1.000000
   51       -2.831174     -2.295227   1.000000   1.000000
   52       -2.831132     -2.295189   1.000000   1.000000
   53       -2.831090     -2.295159   1.000000   1.000000
   54       -2.831064     -2.295103   1.000000   1.000000
   55       -2.831046     -2.295082   1.000000   1.000000
   56       -2.830990     -2.295049   1.000000   1.000000
   57       -2.760338     -2.172637   1.000000   1.000000
   58       -2.760286     -2.172591   1.000000   1.000000
   59       -2.356561     -1.893139   1.000000   1.000000
   60       -2.356514     -1.893094   1.000000   1.000000
   61       -2.356502     -1.893086   1.000000   1.000000
   62       -2.356439     -1.893008   1.000000   1.000000
   63       -2.356428     -1.893003   1.000000   1.000000
   64       -2.356399     -1.892974   1.000000   1.000000
   65       -2.286355     -1.701456   1.000000   1.000000
   66       -2.286344     -1.701444   1.000000   1.000000
   67       -2.286004     -1.701030   1.000000   1.000000
   68       -2.286001     -1.701027   1.000000   1.000000
   69       -2.213400     -1.617834   1.000000   1.000000
   70       -2.213336     -1.617762   1.000000   1.000000
   71       -2.213287     -1.617697   1.000000   1.000000
   72       -2.213259     -1.617684   1.000000   1.000000
   73       -2.213215     -1.617633   1.000000   1.000000
   74       -2.213172     -1.617580   1.000000   1.000000
   75       -2.197730     -1.573871   1.000000   1.000000
   76       -2.127627     -1.466385   1.000000   1.000000
   77       -2.049957     -1.439429   1.000000   1.000000
   78       -2.049939     -1.439393   1.000000   1.000000
   79       -2.044577     -1.342328   1.000000   1.000000
   80       -2.044572     -1.342294   1.000000   1.000000
   81       -1.943383     -1.342236   1.000000   1.000000
   82       -1.943365     -1.342202   1.000000   1.000000
   83       -1.943298     -1.342187   1.000000   1.000000
   84       -1.943250     -1.342126   1.000000   1.000000
   85       -1.943225     -1.303258   1.000000   1.000000
   86       -1.943175     -1.303233   1.000000   1.000000
   87       -1.876019     -1.286868   1.000000   1.000000
   88       -1.876008     -1.286858   1.000000   1.000000
   89       -1.875716     -1.286663   1.000000   1.000000
   90       -1.875715     -1.286653   1.000000   1.000000
   91       -1.843614     -1.256257   1.000000   1.000000
   92       -1.843592     -1.256229   1.000000   1.000000
   93       -1.843568     -1.255892   1.000000   1.000000
   94       -1.843469     -1.255884   1.000000   1.000000
   95       -1.843444     -1.224880   1.000000   0.999999
   96       -1.843387     -1.187056   1.000000   0.999999
   97       -1.827652     -1.187028   1.000000   0.999999
   98       -1.802624     -1.187007   1.000000   0.999999
   99       -1.802604     -1.186930   1.000000   0.999999
  100       -1.762663     -1.186909   1.000000   0.999999
  101       -1.762646     -1.186857   1.000000   0.999999
  102       -1.759019     -1.160681   1.000000   0.999999
  103       -1.758993     -1.160649   1.000000   0.999999
  104       -1.758531     -1.160584   1.000000   0.999999
  105       -1.758530     -1.160553   1.000000   0.999999
  106       -1.665911     -1.160524   1.000000   0.999999
  107       -1.665850     -1.160508   1.000000   0.999999
  108       -1.665807     -1.154574   1.000000   0.999999
  109       -1.665731     -1.154537   1.000000   0.999999
  110       -1.665722     -1.068314   1.000000   0.999997
  111       -1.665665     -1.068277   1.000000   0.999997
  112       -1.388735     -0.902955   1.000000   0.999983
  113       -1.388706     -0.902910   1.000000   0.999983
  114       -1.388658     -0.902852   1.000000   0.999983
  115       -1.388618     -0.902836   1.000000   0.999983
  116       -1.388574     -0.902815   1.000000   0.999983
  117       -1.388571     -0.902797   1.000000   0.999983
  118       -1.341696     -0.717105   1.000000   0.999894
  119       -1.341660     -0.717089   1.000000   0.999894
  120       -1.341618     -0.717050   1.000000   0.999894
  121       -1.341557     -0.717015   1.000000   0.999894
  122       -1.341538     -0.716997   1.000000   0.999894
  123       -1.341496     -0.716962   1.000000   0.999893
  124       -1.206560     -0.716046   0.999999   0.999893
  125       -1.206527     -0.715991   0.999999   0.999892
  126       -1.144336     -0.715931   0.999999   0.999892
  127       -1.144304     -0.715893   0.999999   0.999892
  128       -1.144258     -0.715880   0.999999   0.999892
  129       -1.144212     -0.715826   0.999999   0.999892
  130       -1.144178     -0.644845   0.999999   0.999781
  131       -1.144158     -0.644802   0.999999   0.999781
  132       -1.034613     -0.435018   0.999996   0.998217
  133       -1.034562     -0.434966   0.999996   0.998216
  134       -0.993400     -0.423915   0.999993   0.998008
  135       -0.993398     -0.423915   0.999993   0.998008
  136       -0.992748     -0.423251   0.999993   0.997995
  137       -0.992740     -0.423239   0.999993   0.997994
  138       -0.925202     -0.283472   0.999987   0.991935
  139       -0.925174     -0.283428   0.999987   0.991932
  140       -0.925132     -0.283403   0.999987   0.991930
  141       -0.925078     -0.283342   0.999987   0.991925
  142       -0.925057     -0.283333   0.999987   0.991924
  143       -0.925020     -0.283279   0.999987   0.991920
  144       -0.895666     -0.264670   0.999982   0.990283
  145       -0.895657     -0.264664   0.999982   0.990283
  146       -0.828247     -0.178126   0.999965   0.977217
  147       -0.828219     -0.077796   0.999965   0.940219
  148       -0.828190     -0.077776   0.999965   0.940207
  149       -0.828147     -0.077737   0.999965   0.940186
  150       -0.828121     -0.077711   0.999965   0.940171
  151       -0.828080     -0.077705   0.999965   0.940167
  152       -0.737735     -0.077646   0.999913   0.940134
  153       -0.737698     -0.045444   0.999913   0.919227
  154       -0.737658     -0.045420   0.999913   0.919210
  155       -0.737628     -0.045399   0.999913   0.919194
  156       -0.737570     -0.045347   0.999913   0.919156
  157       -0.737562     -0.045314   0.999913   0.919131
  158       -0.675189     -0.045279   0.999838   0.919105
  159       -0.675079      0.028204   0.999838   0.844935
  160       -0.627065      0.028268   0.999738   0.844852
  161       -0.627032      0.028274   0.999738   0.844844
  162       -0.627000      0.028304   0.999738   0.844805
  163       -0.626984      0.028307   0.999738   0.844800
  164       -0.626924      0.028340   0.999738   0.844757
  165       -0.626893      0.066320   0.999738   0.788225
  166       -0.587789      0.066360   0.999612   0.788157
  167       -0.587768      0.066408   0.999612   0.788077
  168       -0.587746      0.066426   0.999612   0.788048
  169       -0.587716      0.066436   0.999612   0.788031
  170       -0.587689      0.066476   0.999612   0.787964
  171       -0.587666      0.111113   0.999612   0.703980
  172       -0.583205      0.111120   0.999594   0.703966
  173       -0.583155      0.127814   0.999594   0.668036
  174       -0.583115      0.127825   0.999594   0.668013
  175       -0.583094      0.127856   0.999594   0.667944
  176       -0.583020      0.127890   0.999594   0.667867
  177       -0.583010      0.127950   0.999594   0.667735
  178       -0.534692      0.127987   0.999341   0.667653
  179       -0.534593      0.142555   0.999341   0.634578
  180       -0.533297      0.142628   0.999332   0.634410
  181       -0.533294      0.173037   0.999332   0.561458
  182       -0.519002      0.173091   0.999229   0.561327
  183       -0.519001      0.173093   0.999229   0.561322
  184       -0.518937      0.173115   0.999229   0.561267
  185       -0.518924      0.173254   0.999229   0.560925
  186       -0.505940      0.173277   0.999122   0.560870
  187       -0.505914      0.267148   0.999122   0.333138
  188       -0.505862      0.267152   0.999121   0.333130
  189       -0.505824      0.267188   0.999121   0.333050
  190       -0.505800      0.267198   0.999121   0.333027
  191       -0.505758      0.279853   0.999120   0.305535
  192       -0.382446      0.279921   0.996987   0.305391
  193       -0.382429      0.334500   0.996987   0.203016
  194       -0.367647      0.334514   0.996509   0.202994
  195       -0.349341      0.409010   0.995810   0.107874
  196       -0.349330      0.409023   0.995810   0.107862
  197       -0.349308      0.409049   0.995809   0.107837
  198       -0.349247      0.409103   0.995806   0.107785
  199       -0.349213      0.409137   0.995805   0.107752
  200       -0.349207      0.409147   0.995804   0.107742
  201        0.615528      0.587298   0.015100   0.019928
  202        0.887677      1.264529   0.001007   0.000023
  203        0.887732      1.264564   0.001007   0.000023
  204        0.887752      1.264586   0.001007   0.000023
  205        0.887859      1.264689   0.001006   0.000023
  206        0.887913      1.264721   0.001005   0.000023
  207        0.887946      1.264751   0.001005   0.000023
  208        3.266504      3.478847   0.000000   0.000000
  209        3.266757      3.479038   0.000000   0.000000
  210        3.266801      3.479103   0.000000   0.000000
  211        3.267135      3.479419   0.000000   0.000000
  212        3.267213      3.479489   0.000000   0.000000
  213        3.267364      3.479642   0.000000   0.000000
  214        3.970982      3.866636   0.000000   0.000000
  215        4.434401      4.404741   0.000000   0.000000
  216        5.032218      5.140678   0.000000   0.000000
  217        5.032312      5.260426   0.000000   0.000000
  218        5.158820      5.260524   0.000000   0.000000
  219        5.272652      5.496568   0.000000   0.000000
  220        5.272668      5.496585   0.000000   0.000000
  221        5.273177      5.497014   0.000000   0.000000
  222        5.273182      5.497019   0.000000   0.000000
  223        5.605728      5.734401   0.000000   0.000000
  224        5.610255      5.739819   0.000000   0.000000
  225        5.610296      5.739866   0.000000   0.000000
  226        5.613718      5.743160   0.000000   0.000000
  227        5.613742      5.743195   0.000000   0.000000
  228        5.615839      5.746129   0.000000   0.000000
  229        6.047386      6.204300   0.000000   0.000000
  230        6.047452      6.235260   0.000000   0.000000
  231        6.047859      6.235329   0.000000   0.000000
  232        6.047862      6.235636   0.000000   0.000000
  233        6.211553      6.235638   0.000000   0.000000
  234        6.923332      6.850184   0.000000   0.000000
  235        6.933658      6.859871   0.000000   0.000000
  236        6.975246      6.953314   0.000000   0.000000
  237        6.975318      7.213903   0.000000   0.000000
  238        6.981247      7.213968   0.000000   0.000000
  239        7.348103      7.317296   0.000000   0.000000
  240        7.379242      7.322651   0.000000   0.000000
  241        7.380882      7.324050   0.000000   0.000000
 
  0.2500000E+00 -0.4163336E-16  0.0000000E+00  0.1250000E+00
    1      -11.795151    -11.795249   1.000000   1.000000
    2       -7.774973     -7.815548   1.000000   1.000000
    3       -6.471587     -6.501306   1.000000   1.000000
    4       -6.083062     -6.100169   1.000000   1.000000
    5       -5.369757     -5.354358   1.000000   1.000000
    6       -5.369731     -5.354336   1.000000   1.000000
    7       -4.981824     -4.954913   1.000000   1.000000
    8       -4.875099     -4.803034   1.000000   1.000000
    9       -4.461742     -4.366202   1.000000   1.000000
   10       -4.461714     -4.366177   1.000000   1.000000
   11       -4.431161     -4.254833   1.000000   1.000000
   12       -4.431114     -4.254805   1.000000   1.000000
   13       -4.304446     -4.245603   1.000000   1.000000
   14       -4.253386     -4.245154   1.000000   1.000000
   15       -4.245287     -4.244392   1.000000   1.000000
   16       -4.244843     -4.006618   1.000000   1.000000
   17       -4.244119     -3.907837   1.000000   1.000000
   18       -4.052708     -3.753541   1.000000   1.000000
   19       -4.021320     -3.753531   1.000000   1.000000
   20       -4.021306     -3.740228   1.000000   1.000000
   21       -3.777738     -3.588203   1.000000   1.000000
   22       -3.662249     -3.309325   1.000000   1.000000
   23       -3.594788     -3.309302   1.000000   1.000000
   24       -3.594760     -3.279385   1.000000   1.000000
   25       -3.582757     -3.229137   1.000000   1.000000
   26       -3.582728     -3.229115   1.000000   1.000000
   27       -3.579745     -3.032612   1.000000   1.000000
   28       -3.447588     -3.032578   1.000000   1.000000
   29       -3.447571     -2.987163   1.000000   1.000000
   30       -3.441604     -2.960219   1.000000   1.000000
   31       -3.441587     -2.960196   1.000000   1.000000
   32       -3.417614     -2.936761   1.000000   1.000000
   33       -3.417597     -2.863065   1.000000   1.000000
   34       -3.407532     -2.840685   1.000000   1.000000
   35       -3.359301     -2.840669   1.000000   1.000000
   36       -3.277250     -2.758138   1.000000   1.000000
   37       -3.277222     -2.758115   1.000000   1.000000
   38       -3.193192     -2.722482   1.000000   1.000000
   39       -3.193171     -2.722457   1.000000   1.000000
   40       -3.170533     -2.661695   1.000000   1.000000
   41       -3.170515     -2.661685   1.000000   1.000000
   42       -3.089151     -2.598319   1.000000   1.000000
   43       -3.089135     -2.598289   1.000000   1.000000
   44       -3.009181     -2.478472   1.000000   1.000000
   45       -2.992936     -2.455478   1.000000   1.000000
   46       -2.992918     -2.455454   1.000000   1.000000
   47       -2.954660     -2.436925   1.000000   1.000000
   48       -2.918744     -2.436897   1.000000   1.000000
   49       -2.918722     -2.364981   1.000000   1.000000
   50       -2.905995     -2.363972   1.000000   1.000000
   51       -2.905987     -2.363958   1.000000   1.000000
   52       -2.781997     -2.305021   1.000000   1.000000
   53       -2.781978     -2.304998   1.000000   1.000000
   54       -2.735485     -2.190215   1.000000   1.000000
   55       -2.735449     -2.190181   1.000000   1.000000
   56       -2.716325     -2.145203   1.000000   1.000000
   57       -2.716286     -2.145167   1.000000   1.000000
   58       -2.585473     -2.053398   1.000000   1.000000
   59       -2.582498     -1.996495   1.000000   1.000000
   60       -2.582478     -1.996481   1.000000   1.000000
   61       -2.559135     -1.955942   1.000000   1.000000
   62       -2.404780     -1.955936   1.000000   1.000000
   63       -2.404773     -1.922465   1.000000   1.000000
   64       -2.360232     -1.891289   1.000000   1.000000
   65       -2.360204     -1.770225   1.000000   1.000000
   66       -2.338003     -1.770198   1.000000   1.000000
   67       -2.305892     -1.727209   1.000000   1.000000
   68       -2.282949     -1.727185   1.000000   1.000000
   69       -2.282932     -1.697179   1.000000   1.000000
   70       -2.279892     -1.697162   1.000000   1.000000
   71       -2.279868     -1.692518   1.000000   1.000000
   72       -2.273562     -1.611436   1.000000   1.000000
   73       -2.165150     -1.590513   1.000000   1.000000
   74       -2.165102     -1.572261   1.000000   1.000000
   75       -2.149799     -1.572213   1.000000   1.000000
   76       -2.127909     -1.540408   1.000000   1.000000
   77       -2.098619     -1.521458   1.000000   1.000000
   78       -2.025120     -1.422853   1.000000   1.000000
   79       -2.008803     -1.406703   1.000000   1.000000
   80       -2.008795     -1.406657   1.000000   1.000000
   81       -1.982770     -1.405118   1.000000   1.000000
   82       -1.982736     -1.405097   1.000000   1.000000
   83       -1.979811     -1.372021   1.000000   1.000000
   84       -1.965764     -1.371965   1.000000   1.000000
   85       -1.955703     -1.345314   1.000000   1.000000
   86       -1.932256     -1.321871   1.000000   1.000000
   87       -1.932222     -1.320487   1.000000   1.000000
   88       -1.917937     -1.320439   1.000000   1.000000
   89       -1.910356     -1.308596   1.000000   1.000000
   90       -1.896605     -1.301463   1.000000   1.000000
   91       -1.896550     -1.301402   1.000000   1.000000
   92       -1.866946     -1.290544   1.000000   1.000000
   93       -1.865321     -1.279432   1.000000   1.000000
   94       -1.860139     -1.269497   1.000000   1.000000
   95       -1.860088     -1.269460   1.000000   1.000000
   96       -1.855661     -1.242596   1.000000   0.999999
   97       -1.812873     -1.241951   1.000000   0.999999
   98       -1.812819     -1.241927   1.000000   0.999999
   99       -1.779182     -1.227193   1.000000   0.999999
  100       -1.768048     -1.224879   1.000000   0.999999
  101       -1.768013     -1.190575   1.000000   0.999999
  102       -1.737777     -1.190525   1.000000   0.999999
  103       -1.734662     -1.157206   1.000000   0.999999
  104       -1.734599     -1.157152   1.000000   0.999999
  105       -1.719678     -1.153433   1.000000   0.999999
  106       -1.691466     -1.102080   1.000000   0.999998
  107       -1.691424     -1.102055   1.000000   0.999998
  108       -1.687842     -1.088673   1.000000   0.999997
  109       -1.677495     -1.077723   1.000000   0.999997
  110       -1.665564     -1.077134   1.000000   0.999997
  111       -1.665545     -1.077097   1.000000   0.999997
  112       -1.648148     -1.076810   1.000000   0.999997
  113       -1.648098     -1.075505   1.000000   0.999997
  114       -1.614263     -1.010242   1.000000   0.999994
  115       -1.590736     -1.010188   1.000000   0.999994
  116       -1.590688     -0.977176   1.000000   0.999992
  117       -1.463930     -0.927706   1.000000   0.999987
  118       -1.381188     -0.817862   1.000000   0.999961
  119       -1.364759     -0.817803   1.000000   0.999961
  120       -1.350031     -0.791552   1.000000   0.999949
  121       -1.349954     -0.745058   1.000000   0.999920
  122       -1.305482     -0.745009   1.000000   0.999920
  123       -1.305431     -0.743840   1.000000   0.999919
  124       -1.295166     -0.720328   1.000000   0.999897
  125       -1.295108     -0.720276   1.000000   0.999897
  126       -1.294125     -0.684631   1.000000   0.999853
  127       -1.292906     -0.684583   1.000000   0.999853
  128       -1.292860     -0.596703   1.000000   0.999646
  129       -1.235964     -0.546361   0.999999   0.999414
  130       -1.207917     -0.546320   0.999999   0.999413
  131       -1.207870     -0.544393   0.999999   0.999402
  132       -1.096381     -0.543537   0.999998   0.999397
  133       -1.094494     -0.500548   0.999998   0.999073
  134       -1.087928     -0.496176   0.999997   0.999032
  135       -1.087591     -0.496126   0.999997   0.999031
  136       -1.087528     -0.481937   0.999997   0.998884
  137       -1.008991     -0.396632   0.999994   0.997385
  138       -1.008965     -0.394396   0.999994   0.997326
  139       -1.005976     -0.394382   0.999994   0.997325
  140       -0.967705     -0.375371   0.999991   0.996767
  141       -0.967685     -0.375333   0.999991   0.996766
  142       -0.941200     -0.312731   0.999989   0.993969
  143       -0.903034     -0.312694   0.999983   0.993967
  144       -0.893066     -0.308932   0.999982   0.993737
  145       -0.893030     -0.260146   0.999982   0.989838
  146       -0.880825     -0.254606   0.999979   0.989266
  147       -0.867304     -0.235617   0.999976   0.987050
  148       -0.864803     -0.233204   0.999976   0.986738
  149       -0.864742     -0.214257   0.999976   0.984016
  150       -0.823173     -0.214202   0.999963   0.984007
  151       -0.818247     -0.169218   0.999961   0.975148
  152       -0.818176     -0.169175   0.999961   0.975137
  153       -0.800018     -0.164118   0.999954   0.973881
  154       -0.763716     -0.132082   0.999933   0.964370
  155       -0.763647     -0.073458   0.999933   0.937733
  156       -0.761791     -0.071430   0.999932   0.936539
  157       -0.761736     -0.071389   0.999932   0.936514
  158       -0.742640     -0.055249   0.999918   0.926215
  159       -0.732378     -0.055199   0.999909   0.926181
  160       -0.732297      0.003714   0.999909   0.874387
  161       -0.692029      0.003767   0.999863   0.874329
  162       -0.661550      0.055186   0.999815   0.806214
  163       -0.661499      0.058920   0.999815   0.800313
  164       -0.592888      0.058978   0.999632   0.800222
  165       -0.563437      0.087543   0.999506   0.750640
  166       -0.563355      0.087610   0.999505   0.750514
  167       -0.557468      0.094921   0.999475   0.736576
  168       -0.557393      0.109343   0.999475   0.707656
  169       -0.551036      0.122911   0.999440   0.678818
  170       -0.535620      0.122994   0.999347   0.678637
  171       -0.534412      0.158799   0.999339   0.596154
  172       -0.534332      0.169466   0.999339   0.570233
  173       -0.492138      0.169541   0.998992   0.570048
  174       -0.492102      0.183076   0.998992   0.536608
  175       -0.490706      0.183118   0.998978   0.536504
  176       -0.485693      0.251501   0.998925   0.368756
  177       -0.485612      0.251551   0.998924   0.368641
  178       -0.468344      0.256424   0.998722   0.357372
  179       -0.468306      0.272521   0.998721   0.321310
  180       -0.458007      0.272587   0.998583   0.321168
  181       -0.457964      0.312288   0.998582   0.241326
  182       -0.451368      0.312330   0.998485   0.241249
  183       -0.426950      0.337825   0.998067   0.197690
  184       -0.426893      0.337875   0.998066   0.197611
  185       -0.388870      0.339931   0.997174   0.194371
  186       -0.388842      0.372176   0.997173   0.148767
  187       -0.378986      0.381711   0.996882   0.137092
  188       -0.378761      0.396594   0.996875   0.120417
  189       -0.368631      0.422007   0.996543   0.095988
  190       -0.368598      0.422033   0.996541   0.095966
  191       -0.361490      0.447489   0.996288   0.076038
  192       -0.287780      0.447527   0.992273   0.076011
  193       -0.262467      0.459568   0.990069   0.067975
  194       -0.027138      0.519488   0.904550   0.038515
  195        0.042743      0.651862   0.824918   0.010549
  196        0.042767      0.656029   0.824883   0.010122
  197        0.123630      0.656080   0.677250   0.010117
  198        0.252705      0.665092   0.365958   0.009253
  199        0.366557      0.879641   0.156024   0.001092
  200        0.366588      0.879660   0.155983   0.001091
  201        0.633054      1.046633   0.012704   0.000206
  202        0.633081      1.099796   0.012700   0.000121
  203        0.672608      1.099819   0.008589   0.000121
  204        1.294873      1.475372   0.000017   0.000003
  205        1.743963      2.011715   0.000000   0.000000
  206        1.744016      2.011755   0.000000   0.000000
  207        2.055337      2.191574   0.000000   0.000000
  208        2.080375      2.376746   0.000000   0.000000
  209        2.821020      3.073422   0.000000   0.000000
  210        2.821046      3.073444   0.000000   0.000000
  211        3.005372      3.346821   0.000000   0.000000
  212        3.005390      3.346845   0.000000   0.000000
  213        3.808354      4.061340   0.000000   0.000000
  214        3.808396      4.061362   0.000000   0.000000
  215        3.955163      4.093672   0.000000   0.000000
  216        4.088219      4.126327   0.000000   0.000000
  217        4.088301      4.253767   0.000000   0.000000
  218        4.131474      4.253812   0.000000   0.000000
  219        4.204515      4.263194   0.000000   0.000000
  220        4.629474      4.602515   0.000000   0.000000
  221        4.954169      5.096064   0.000000   0.000000
  222        4.954978      5.097476   0.000000   0.000000
  223        4.990739      5.172816   0.000000   0.000000
  224        4.990821      5.172880   0.000000   0.000000
  225        5.395918      5.378665   0.000000   0.000000
  226        5.691156      5.896540   0.000000   0.000000
  227        5.691243      5.902504   0.000000   0.000000
  228        5.997714      5.902583   0.000000   0.000000
  229        6.157865      6.146610   0.000000   0.000000
  230        6.381871      6.362755   0.000000   0.000000
  231        6.501372      6.598359   0.000000   0.000000
  232        6.622840      6.669460   0.000000   0.000000
  233        6.628834      6.752537   0.000000   0.000000
  234        6.688237      6.755943   0.000000   0.000000
  235        6.751335      6.768369   0.000000   0.000000
  236        6.916656      6.882600   0.000000   0.000000
  237        6.991356      6.987239   0.000000   0.000000
  238        6.991479      7.213832   0.000000   0.000000
  239        6.994790      7.222784   0.000000   0.000000
  240        7.043813      7.222886   0.000000   0.000000
  241        7.430841      7.259127   0.000000   0.000000
 
  0.5000000E+00 -0.8326673E-16  0.0000000E+00  0.6250000E-01
    1      -11.794985    -11.795081   1.000000   1.000000
    2       -7.102513     -7.139580   1.000000   1.000000
    3       -7.102506     -7.139572   1.000000   1.000000
    4       -5.846364     -5.867246   1.000000   1.000000
    5       -5.846336     -5.867211   1.000000   1.000000
    6       -5.509620     -5.511897   1.000000   1.000000
    7       -5.509599     -5.511875   1.000000   1.000000
    8       -4.516786     -4.455978   1.000000   1.000000
    9       -4.516756     -4.455949   1.000000   1.000000
   10       -4.332596     -4.245774   1.000000   1.000000
   11       -4.332523     -4.244323   1.000000   1.000000
   12       -4.245410     -4.243683   1.000000   1.000000
   13       -4.244017     -4.238761   1.000000   1.000000
   14       -4.243400     -4.238670   1.000000   1.000000
   15       -4.162084     -3.730816   1.000000   1.000000
   16       -4.029362     -3.689582   1.000000   1.000000
   17       -3.873752     -3.552973   1.000000   1.000000
   18       -3.873697     -3.552935   1.000000   1.000000
   19       -3.873637     -3.552903   1.000000   1.000000
   20       -3.873628     -3.552870   1.000000   1.000000
   21       -3.827964     -3.439858   1.000000   1.000000
   22       -3.827928     -3.439797   1.000000   1.000000
   23       -3.713886     -3.369206   1.000000   1.000000
   24       -3.713856     -3.369181   1.000000   1.000000
   25       -3.713805     -3.369123   1.000000   1.000000
   26       -3.713758     -3.369086   1.000000   1.000000
   27       -3.664586     -3.264537   1.000000   1.000000
   28       -3.542042     -3.264512   1.000000   1.000000