       N       E                     dE             d eps       ncg     rms          rms(c)
DAV:   1     0.253383348196E+04    0.25338E+04   -0.12770E+05  9640   0.126E+03
DAV:   2     0.125046089242E+03   -0.24088E+04   -0.22768E+04  9640   0.322E+02
DAV:   3    -0.105240460261E+03   -0.23029E+03   -0.20553E+03 10422   0.131E+02
DAV:   4    -0.114284766403E+03   -0.90443E+01   -0.89289E+01 10408   0.272E+01
DAV:   5    -0.114533013883E+03   -0.24825E+00   -0.24803E+00 13160   0.323E+00
DAV:   6    -0.114545973364E+03   -0.12959E-01   -0.12959E-01 13215   0.510E-01
DAV:   7    -0.114546261442E+03   -0.28808E-03   -0.28807E-03 10239   0.794E-02
DAV:   8    -0.114546272124E+03   -0.10683E-04   -0.10683E-04  6600   0.177E-02
DAV:   9    -0.114546273193E+03   -0.10684E-05   -0.10684E-05  5688   0.929E-03
DAV:  10    -0.114546273654E+03   -0.46175E-06   -0.46170E-06  5400   0.620E-03
DAV:  11    -0.114546273889E+03   -0.23453E-06   -0.23459E-06  5344   0.446E-03
DAV:  12    -0.114546274015E+03   -0.12622E-06   -0.12609E-06  5328   0.315E-03    0.516E+01
RMM:  13    -0.125698684223E+03   -0.11152E+02   -0.33405E+02  9682   0.661E+01    0.735E+01
RMM:  14    -0.129054056163E+03   -0.33554E+01   -0.10010E+02  9697   0.296E+01    0.759E+01
RMM:  15    -0.913273300802E+02    0.37727E+02   -0.32899E+01  9686   0.194E+01    0.279E+01
RMM:  16    -0.103199836265E+03   -0.11873E+02   -0.74407E+00  9681   0.818E+00    0.666E+01
RMM:  17    -0.959465260140E+02    0.72533E+01   -0.25234E+00  9705   0.509E+00    0.506E+01
RMM:  18    -0.884497002713E+02    0.74968E+01   -0.23448E+00  9688   0.493E+00    0.810E+00
RMM:  19    -0.896251866504E+02   -0.11755E+01   -0.97436E-01  9707   0.310E+00    0.171E+01
RMM:  20    -0.890343706664E+02    0.59082E+00   -0.62433E-01  9704   0.270E+00    0.578E+00
RMM:  21    -0.901053505792E+02   -0.10710E+01   -0.75561E-01  9688   0.266E+00    0.150E+01
RMM:  22    -0.902167321506E+02   -0.11138E+00   -0.76867E-01  9706   0.275E+00    0.102E+01
RMM:  23    -0.902905144665E+02   -0.73782E-01   -0.22849E-01  9705   0.150E+00    0.967E+00
RMM:  24    -0.906688394153E+02   -0.37832E+00   -0.15210E-01  9697   0.118E+00    0.128E+01
RMM:  25    -0.907018066541E+02   -0.32967E-01   -0.74606E-02  9700   0.874E-01    0.125E+01
RMM:  26    -0.907743127174E+02   -0.72506E-01   -0.85118E-02  9700   0.872E-01    0.125E+01
RMM:  27    -0.907012268742E+02    0.73086E-01   -0.15935E-01  9696   0.119E+00    0.104E+01
RMM:  28    -0.906350665481E+02    0.66160E-01   -0.16617E-01  9691   0.125E+00    0.877E+00
RMM:  29    -0.904830413409E+02    0.15203E+00   -0.11019E-01  9708   0.108E+00    0.380E+00
RMM:  30    -0.905017695023E+02   -0.18728E-01   -0.30291E-02  9688   0.549E-01    0.335E+00
RMM:  31    -0.905537314501E+02   -0.51962E-01   -0.47881E-02  9700   0.625E-01    0.276E+00
RMM:  32    -0.905728643348E+02   -0.19133E-01   -0.23167E-02  9664   0.460E-01    0.282E+00
RMM:  33    -0.906161254608E+02   -0.43261E-01   -0.46863E-02  9702   0.610E-01    0.202E+00
RMM:  34    -0.906227790681E+02   -0.66536E-02   -0.16809E-02  9704   0.401E-01    0.160E+00
RMM:  35    -0.906442260073E+02   -0.21447E-01   -0.13902E-02  9677   0.345E-01    0.199E+00
RMM:  36    -0.906337034134E+02    0.10523E-01   -0.93108E-03  9680   0.316E-01    0.123E+00
RMM:  37    -0.906295596063E+02    0.41438E-02   -0.83963E-03  9672   0.270E-01    0.163E+00
RMM:  38    -0.906220624703E+02    0.74971E-02   -0.62510E-03  9656   0.248E-01    0.635E-01
RMM:  39    -0.906248271807E+02   -0.27647E-02   -0.24032E-03  9640   0.137E-01    0.708E-01
RMM:  40    -0.906247301405E+02    0.97040E-04   -0.13247E-03  9525   0.114E-01    0.386E-01
RMM:  41    -0.906254217190E+02   -0.69158E-03   -0.74366E-04  9082   0.814E-02    0.465E-01
RMM:  42    -0.906248523817E+02    0.56934E-03   -0.67261E-04  8551   0.793E-02    0.175E-01
RMM:  43    -0.906251800304E+02   -0.32765E-03   -0.23302E-04  5891   0.483E-02    0.214E-01
RMM:  44    -0.906257844173E+02   -0.60439E-03   -0.22431E-04  5863   0.473E-02    0.129E-01
RMM:  45    -0.906259814671E+02   -0.19705E-03   -0.53306E-05  5363   0.245E-02    0.119E-01
RMM:  46    -0.906270900512E+02   -0.11086E-02   -0.14017E-04  5739   0.227E-02    0.918E-02
RMM:  47    -0.906274468797E+02   -0.35683E-03   -0.44727E-05  5418   0.179E-02    0.896E-02
RMM:  48    -0.906281487993E+02   -0.70192E-03   -0.11175E-04  5696   0.197E-02    0.513E-02
RMM:  49    -0.906282587892E+02   -0.10999E-03   -0.15556E-05  5357   0.113E-02    0.383E-02
RMM:  50    -0.906285984112E+02   -0.33962E-03   -0.38449E-05  5496   0.110E-02    0.421E-02
RMM:  51    -0.906287776761E+02   -0.17926E-03   -0.16556E-05  5297   0.101E-02    0.310E-02
RMM:  52    -0.906294750424E+02   -0.69737E-03   -0.12197E-04  5683   0.121E-02    0.289E-02
RMM:  53    -0.906295637702E+02   -0.88728E-04   -0.10129E-05  5077   0.781E-03
   1 F= -.90629564E+02 E0= -.89524032E+02  d E =-.906296E+02  mag=    22.8866
