 vasp.5.4.4.18Apr17-6-g9f103f2a35 (build Sep 12 2022 16:13:44) complex          
  
 executed on             LinuxIFC date 2022.09.19  23:50:40
 running on   32 total cores
 distrk:  each k-point on   32 cores,    1 groups
 distr:  one band on NCORES_PER_BAND=  32 cores,    1 groups


--------------------------------------------------------------------------------------------------------


 INCAR:
 POTCAR:    PAW_PBE Ni 02Aug2007                  
 POTCAR:    PAW_PBE H 15Jun2001                   
 POTCAR:    PAW_PBE C 08Apr2002                   

 ----------------------------------------------------------------------------- 
|                                                                             |
|           W    W    AA    RRRRR   N    N  II  N    N   GGGG   !!!           |
|           W    W   A  A   R    R  NN   N  II  NN   N  G    G  !!!           |
|           W    W  A    A  R    R  N N  N  II  N N  N  G       !!!           |
|           W WW W  AAAAAA  RRRRR   N  N N  II  N  N N  G  GGG   !            |
|           WW  WW  A    A  R   R   N   NN  II  N   NN  G    G                |
|           W    W  A    A  R    R  N    N  II  N    N   GGGG   !!!           |
|                                                                             |
|      For optimal performance we recommend to set                            |
|        NCORE= 4 - approx SQRT( number of cores)                             |
|      NCORE specifies how many cores store one orbital (NPAR=cpu/NCORE).     |
|      This setting can  greatly improve the performance of VASP for DFT.     |
|      The default,   NCORE=1            might be grossly inefficient         |
|      on modern multi-core architectures or massively parallel machines.     |
|      Do your own testing !!!!                                               |
|      Unfortunately you need to use the default for GW and RPA calculations. |
|      (for HF NCORE is supported but not extensively tested yet)             |
|                                                                             |
 ----------------------------------------------------------------------------- 


 ----------------------------------------------------------------------------- 
|                                                                             |
|  ADVICE TO THIS USER RUNNING 'VASP/VAMP'   (HEAR YOUR MASTER'S VOICE ...):  |
|                                                                             |
|      You have switched on vdW-DFT.                                          |
|      This routine was written and supplied by Jiri Klimes.                  |
|      We recommed that you carefully read and cite the following             |
|      publication                                                            |
|      J. Klimes, D.R. Bowler, A. Michelides                                  |
|        J. Phys.: Cond Matt. 22 022201 (2010)                                |
|      J. Klimes, D.R. Bowler, A. Michelides                                  |
|        Phys. Rev. B. 83, 195131 (2011)                                      |
|      and references therein.                                                |
|                                                                             |
 ----------------------------------------------------------------------------- 

 POTCAR:    PAW_PBE Ni 02Aug2007                  
   VRHFIN =Ni:                                                                  
   LEXCH  = PE                                                                  
   EATOM  =  1077.6739 eV,   79.2068 Ry                                         
                                                                                
   TITEL  = PAW_PBE Ni 02Aug2007                                                
   LULTRA =        F    use ultrasoft PP ?                                      
   IUNSCR =        1    unscreen: 0-lin 1-nonlin 2-no                           
   RPACOR =    2.000    partial core radius                                     
   POMASS =   58.690; ZVAL   =   10.000    mass and valenz                      
   RCORE  =    2.300    outmost cutoff radius                                   
   RWIGS  =    2.430; RWIGS  =    1.286    wigner-seitz radius (au A)           
   ENMAX  =  269.532; ENMIN  =  202.149 eV                                      
   RCLOC  =    1.201    cutoff for local pot                                    
   LCOR   =        T    correct aug charges                                     
   LPAW   =        T    paw PP                                                  
   EAUG   =  544.565                                                            
   DEXC   =    0.000                                                            
   RMAX   =    2.357    core radius for proj-oper                               
   RAUG   =    1.300    factor for augmentation sphere                          
   RDEP   =    2.390    radius for radial grids                                 
   RDEPT  =    1.838    core radius for aug-charge                              
                                                                                
   Atomic configuration                                                         
    9 entries                                                                   
     n  l   j            E        occ.                                          
     1  0  0.50     -8206.4253   2.0000                                         
     2  0  0.50      -976.1748   2.0000                                         
     2  1  1.50      -839.0571   6.0000                                         
     3  0  0.50      -105.9991   2.0000                                         
     3  1  1.50       -66.4603   6.0000                                         
     3  2  2.50        -4.6458   9.0000                                         
     4  0  0.50        -4.4926   1.0000                                         
     4  1  1.50        -4.0817   0.0000                                         
     4  3  2.50        -1.3606   0.0000                                         
   Description                                                                  
     l       E           TYP  RCUT    TYP  RCUT                                 
     2     -4.6457903     23  2.300                                             
     2     -6.0063729     23  2.300                                             
     0     -4.4925590     23  2.300                                             
     0      5.0102601     23  2.300                                             
     1     -2.7211652     23  2.300                                             
     1     16.5183231     23  2.300                                             
  local pseudopotential read in
  partial core-charges read in
  partial kinetic energy density read in
  atomic valenz-charges read in
  non local Contribution for L=           2  read in
    real space projection operators read in
  non local Contribution for L=           2  read in
    real space projection operators read in
  non local Contribution for L=           0  read in
    real space projection operators read in
  non local Contribution for L=           0  read in
    real space projection operators read in
  non local Contribution for L=           1  read in
    real space projection operators read in
  non local Contribution for L=           1  read in
    real space projection operators read in
    PAW grid and wavefunctions read in
 
   number of l-projection  operators is LMAX  =           6
   number of lm-projection operators is LMMAX =          18
 
 POTCAR:    PAW_PBE H 15Jun2001                   
   VRHFIN =H: ultrasoft test                                                    
   LEXCH  = PE                                                                  
   EATOM  =    12.4884 eV,    0.9179 Ry                                         
                                                                                
   TITEL  = PAW_PBE H 15Jun2001                                                 
   LULTRA =        F    use ultrasoft PP ?                                      
   IUNSCR =        0    unscreen: 0-lin 1-nonlin 2-no                           
   RPACOR =    0.000    partial core radius                                     
   POMASS =    1.000; ZVAL   =    1.000    mass and valenz                      
   RCORE  =    1.100    outmost cutoff radius                                   
   RWIGS  =    0.700; RWIGS  =    0.370    wigner-seitz radius (au A)           
   ENMAX  =  250.000; ENMIN  =  200.000 eV                                      
   RCLOC  =    0.701    cutoff for local pot                                    
   LCOR   =        T    correct aug charges                                     
   LPAW   =        T    paw PP                                                  
   EAUG   =  400.000                                                            
   RMAX   =    1.123    core radius for proj-oper                               
   RAUG   =    1.200    factor for augmentation sphere                          
   RDEP   =    1.112    radius for radial grids                                 
   RDEPT  =    0.926    core radius for aug-charge                              
                                                                                
   Atomic configuration                                                         
    2 entries                                                                   
     n  l   j            E        occ.                                          
     1  0  0.50        -6.4927   1.0000                                         
     2  1  0.50        -3.4015   0.0000                                         
   Description                                                                  
     l       E           TYP  RCUT    TYP  RCUT                                 
     0     -6.4927494     23  1.100                                             
     0      6.8029130     23  1.100                                             
     1     -4.0817478     23  1.100                                             
  local pseudopotential read in
  atomic valenz-charges read in
  non local Contribution for L=           0  read in
    real space projection operators read in
  non local Contribution for L=           0  read in
    real space projection operators read in
  non local Contribution for L=           1  read in
    real space projection operators read in
    PAW grid and wavefunctions read in
 
   number of l-projection  operators is LMAX  =           3
   number of lm-projection operators is LMMAX =           5
 
 POTCAR:    PAW_PBE C 08Apr2002                   
   VRHFIN =C: s2p2                                                              
   LEXCH  = PE                                                                  
   EATOM  =   147.1560 eV,   10.8157 Ry                                         
                                                                                
   TITEL  = PAW_PBE C 08Apr2002                                                 
   LULTRA =        F    use ultrasoft PP ?                                      
   IUNSCR =        1    unscreen: 0-lin 1-nonlin 2-no                           
   RPACOR =    1.200    partial core radius                                     
   POMASS =   12.011; ZVAL   =    4.000    mass and valenz                      
   RCORE  =    1.500    outmost cutoff radius                                   
   RWIGS  =    1.630; RWIGS  =    0.863    wigner-seitz radius (au A)           
   ENMAX  =  400.000; ENMIN  =  300.000 eV                                      
   ICORE  =        2    local potential                                         
   LCOR   =        T    correct aug charges                                     
   LPAW   =        T    paw PP                                                  
   EAUG   =  644.873                                                            
   DEXC   =    0.000                                                            
   RMAX   =    1.529    core radius for proj-oper                               
   RAUG   =    1.300    factor for augmentation sphere                          
   RDEP   =    1.501    radius for radial grids                                 
   RDEPT  =    1.300    core radius for aug-charge                              
                                                                                
   Atomic configuration                                                         
    4 entries                                                                   
     n  l   j            E        occ.                                          
     1  0  0.50      -273.3789   2.0000                                         
     2  0  0.50       -13.7508   2.0000                                         
     2  1  0.50        -5.2854   2.0000                                         
     3  2  1.50        -5.4423   0.0000                                         
   Description                                                                  
     l       E           TYP  RCUT    TYP  RCUT                                 
     0    -13.7508458     23  1.200                                             
     0     -8.2022199     23  1.200                                             
     1     -5.2854383     23  1.500                                             
     1     34.0145650     23  1.500                                             
     2     -5.4423304      7  1.500                                             
  local pseudopotential read in
  partial core-charges read in
  partial kinetic energy density read in
  atomic valenz-charges read in
  non local Contribution for L=           0  read in
    real space projection operators read in
  non local Contribution for L=           0  read in
    real space projection operators read in
  non local Contribution for L=           1  read in
    real space projection operators read in
  non local Contribution for L=           1  read in
    real space projection operators read in
    PAW grid and wavefunctions read in
 
   number of l-projection  operators is LMAX  =           4
   number of lm-projection operators is LMMAX =           8
 
 Optimization of the real space projectors (new method)

 maximal supplied QI-value         = 16.25
 optimisation between [QCUT,QGAM] = [  9.43, 19.01] = [ 24.88,101.24] Ry 
 Optimized for a Real-space Cutoff    1.52 Angstroem

   l    n(q)    QCUT    max X(q) W(low)/X(q) W(high)/X(q)  e(spline) 
   2      8     9.426    60.317    0.37E-03    0.24E-04    0.33E-06
   2      8     9.426    55.921    0.38E-03    0.25E-04    0.33E-06
   0      9     9.426    51.690    0.69E-04    0.18E-03    0.73E-07
   0      9     9.426    30.015    0.59E-04    0.16E-03    0.68E-07
   1      8     9.426    18.849    0.26E-03    0.18E-03    0.76E-07
   1      8     9.426    14.624    0.22E-03    0.16E-03    0.64E-07
 Optimization of the real space projectors (new method)

 maximal supplied QI-value         = 34.20
 optimisation between [QCUT,QGAM] = [  9.58, 19.15] = [ 25.68,102.74] Ry 
 Optimized for a Real-space Cutoff    1.31 Angstroem

   l    n(q)    QCUT    max X(q) W(low)/X(q) W(high)/X(q)  e(spline) 
   0      7     9.577    19.460    0.33E-03    0.12E-03    0.35E-06
   0      7     9.577    12.209    0.33E-03    0.11E-03    0.33E-06
   1      7     9.577     4.655    0.39E-03    0.14E-02    0.33E-06
 Optimization of the real space projectors (new method)

 maximal supplied QI-value         = 25.13
 optimisation between [QCUT,QGAM] = [  9.55, 19.10] = [ 25.54,102.17] Ry 
 Optimized for a Real-space Cutoff    1.39 Angstroem

   l    n(q)    QCUT    max X(q) W(low)/X(q) W(high)/X(q)  e(spline) 
   0      8     9.551   115.676    0.39E-03    0.54E-03    0.29E-06
   0      8     9.551    87.132    0.39E-03    0.54E-03    0.28E-06
   1      7     9.551     4.429    0.35E-03    0.51E-04    0.29E-06
   1      7     9.551     2.733    0.22E-03    0.42E-04    0.31E-06

 ----------------------------------------------------------------------------- 
|                                                                             |
|  ADVICE TO THIS USER RUNNING 'VASP/VAMP'   (HEAR YOUR MASTER'S VOICE ...):  |
|                                                                             |
|      You enforced a specific xc-type in the INCAR file,                     |
|      a different type was found on the POTCAR file                          |
|          I HOPE YOU KNOW, WHAT YOU ARE  DOING                               |
|                                                                             |
 ----------------------------------------------------------------------------- 

  PAW_PBE Ni 02Aug2007                  :
 energy of atom  1       EATOM=-1077.6739
 kinetic energy error for atom=    0.0234 (will be added to EATOM!!)
  PAW_PBE H 15Jun2001                   :
 energy of atom  2       EATOM=  -12.4884
 kinetic energy error for atom=    0.0203 (will be added to EATOM!!)
  PAW_PBE C 08Apr2002                   :
 energy of atom  3       EATOM= -147.1560
 kinetic energy error for atom=    0.0854 (will be added to EATOM!!)
 
 
 POSCAR:  CH4 + Ni(111) - Asymptotic             
  positions in cartesian coordinates
  velocities in cartesian coordinates
 exchange correlation table for  LEXCH =       47
   RHO(1)=    0.500       N(1)  =     2000
   RHO(2)=  100.500       N(2)  =     4000
 


--------------------------------------------------------------------------------------------------------


 ion  position               nearest neighbor table
   1  0.000  0.000  0.000-  18 2.50  16 2.50  15 2.50   7 2.51   4 2.51   5 2.51   2 2.51   3 2.51
                             9 2.51
   2  0.000  0.333  0.000-  13 2.50  16 2.50  17 2.50   5 2.51   3 2.51   6 2.51   7 2.51   1 2.51
                             8 2.51
   3  0.000  0.667  0.000-  17 2.50  18 2.50  14 2.50   6 2.51   2 2.51   4 2.51   1 2.51   8 2.51
                             9 2.51
   4  0.333  0.000  0.000-  18 2.50  12 2.50  10 2.50   1 2.51   3 2.51   6 2.51   5 2.51   8 2.51
                             7 2.51
   5  0.333  0.333  0.000-  16 2.50  10 2.50  11 2.50   2 2.51   8 2.51   6 2.51   1 2.51   9 2.51
                             4 2.51
   6  0.333  0.667  0.000-  17 2.50  11 2.50  12 2.50   3 2.51   9 2.51   5 2.51   2 2.51   4 2.51
                             7 2.51
   7  0.667  0.000  0.000-  15 2.50  13 2.50  12 2.50   9 2.51   1 2.51   2 2.51   8 2.51   6 2.51
                             4 2.51
   8  0.667  0.333  0.000-  10 2.50  14 2.50  13 2.50   5 2.51   9 2.51   4 2.51   3 2.51   7 2.51
                             2 2.51
   9  0.667  0.667  0.000-  14 2.50  11 2.50  15 2.50   7 2.51   6 2.51   8 2.51   5 2.51   1 2.51
                             3 2.51
  10  0.444  0.222  0.092-   8 2.50   5 2.50   4 2.50  22 2.51  23 2.51  19 2.51  16 2.51  18 2.51
                            12 2.51  11 2.51  14 2.51  13 2.51
  11  0.444  0.556  0.092-   6 2.50   9 2.50   5 2.50  24 2.51  20 2.51  23 2.51  17 2.51  14 2.51
                            12 2.51  16 2.51  15 2.51  10 2.51
  12  0.444  0.889  0.092-   4 2.50   6 2.50   7 2.50  22 2.51  21 2.51  24 2.51  18 2.51  15 2.51
                            11 2.51  17 2.51  10 2.51  13 2.51
  13  0.778  0.222  0.092-   2 2.50   7 2.50   8 2.50  26 2.51  22 2.51  25 2.51  15 2.51  16 2.51
                            17 2.51  14 2.51  12 2.51  10 2.51
  14  0.778  0.556  0.092-   9 2.50   8 2.50   3 2.50  26 2.51  27 2.51  23 2.51  11 2.51  15 2.51
                            10 2.51  18 2.51  13 2.51  17 2.51
  15  0.778  0.889  0.092-   7 2.50   9 2.50   1 2.50  24 2.51  25 2.51  27 2.51  13 2.51  12 2.51
                            14 2.51  11 2.51  16 2.51  18 2.51
  16  0.111  0.222  0.092-   5 2.50   2 2.50   1 2.50  25 2.51  20 2.51  19 2.51  10 2.51  13 2.51
                            11 2.51  18 2.51  17 2.51  15 2.51
  17  0.111  0.556  0.092-   6 2.50   3 2.50   2 2.50  26 2.51  21 2.51  20 2.51  11 2.51  18 2.51
                            12 2.51  16 2.51  13 2.51  14 2.51
  18  0.111  0.889  0.092-   4 2.50   1 2.50   3 2.50  27 2.51  21 2.51  19 2.51  12 2.51  17 2.51
                            10 2.51  16 2.51  14 2.51  15 2.51
  19  0.222  0.111  0.185-  28 2.50  31 2.50  32 2.50  18 2.51  10 2.51  16 2.51  23 2.51  27 2.51
                            25 2.51  20 2.51  22 2.51  21 2.51
  20  0.222  0.444  0.185-  29 2.50  33 2.50  32 2.50  11 2.51  16 2.51  17 2.51  23 2.51  19 2.51
                            24 2.51  25 2.51  26 2.51  21 2.51
  21  0.222  0.778  0.185-  30 2.50  33 2.50  31 2.50  12 2.51  18 2.51  17 2.51  22 2.51  24 2.51
                            19 2.51  27 2.51  26 2.51  20 2.51
  22  0.556  0.111  0.185-  35 2.50  34 2.50  31 2.50  12 2.51  10 2.51  13 2.51  21 2.51  24 2.51
                            19 2.51  23 2.51  26 2.51  25 2.51
  23  0.556  0.444  0.185-  36 2.50  35 2.50  32 2.50  10 2.51  11 2.51  14 2.51  20 2.51  19 2.51
                            22 2.51  24 2.51  26 2.51  27 2.51
  24  0.556  0.778  0.185-  36 2.50  34 2.50  33 2.50  12 2.51  11 2.51  15 2.51  21 2.51  22 2.51
                            20 2.51  25 2.51  23 2.51  27 2.51
  25  0.889  0.111  0.185-  34 2.50  29 2.50  28 2.50  16 2.51  15 2.51  13 2.51  27 2.51  19 2.51
                            20 2.51  24 2.51  26 2.51  22 2.51
  26  0.889  0.444  0.185-  30 2.50  35 2.50  29 2.50  17 2.51  13 2.51  14 2.51  20 2.51  25 2.51
                            21 2.51  22 2.51  27 2.51  23 2.51
  27  0.889  0.778  0.185-  36 2.50  30 2.50  28 2.50  18 2.51  15 2.51  14 2.51  25 2.51  19 2.51
                            21 2.51  26 2.51  24 2.51  23 2.51
  28  0.000  0.000  0.277-  19 2.50  25 2.50  27 2.50  32 2.51  29 2.51  31 2.51  30 2.51  34 2.51
                            36 2.51
  29  0.000  0.333  0.277-  20 2.50  25 2.50  26 2.50  28 2.51  32 2.51  34 2.51  33 2.51  35 2.51
                            30 2.51
  30  0.000  0.667  0.277-  21 2.50  27 2.50  26 2.50  33 2.51  31 2.51  28 2.51  36 2.51  29 2.51
                            35 2.51
  31  0.333  0.000  0.277-  19 2.50  22 2.50  21 2.50  32 2.51  35 2.51  28 2.51  30 2.51  33 2.51
                            34 2.51
  32  0.333  0.333  0.277-  19 2.50  20 2.50  23 2.50  28 2.51  31 2.51  29 2.51  35 2.51  33 2.51
                            36 2.51
  33  0.333  0.667  0.277-  20 2.50  21 2.50  24 2.50  30 2.51  31 2.51  29 2.51  34 2.51  36 2.51
                            32 2.51
  34  0.667  0.000  0.277-  25 2.50  24 2.50  22 2.50  35 2.51  29 2.51  36 2.51  33 2.51  31 2.51
                            28 2.51
  35  0.667  0.333  0.277-  23 2.50  22 2.50  26 2.50  34 2.51  31 2.51  29 2.51  32 2.51  36 2.51
                            30 2.51
  36  0.667  0.667  0.277-  23 2.50  27 2.50  24 2.50  34 2.51  33 2.51  28 2.51  30 2.51  35 2.51
                            32 2.51
  37  0.412  0.492  0.655-  41 1.10
  38  0.412  0.254  0.655-  41 1.10
  39  0.175  0.254  0.655-  41 1.10
  40  0.333  0.333  0.589-  41 1.10
  41  0.333  0.333  0.638-  37 1.10  39 1.10  38 1.10  40 1.10
 

IMPORTANT INFORMATION: All symmetrisations will be switched off!
NOSYMM: (Re-)initialisation of all symmetry stuff for point group C_1.

 
 
 KPOINTS: K-points                                

Automatic generation of k-mesh.
Space group operators:
 irot       det(A)        alpha          n_x          n_y          n_z        tau_x        tau_y        tau_z
    1     1.000000     0.000000     1.000000     0.000000     0.000000     0.000000     0.000000     0.000000
 
 Subroutine IBZKPT returns following result:
 ===========================================
 
 Found     10 irreducible k-points:
 
 Following reciprocal coordinates:
            Coordinates               Weight
  0.000000  0.000000  0.000000      1.000000
  0.250000 -0.000000  0.000000      2.000000
  0.500000 -0.000000  0.000000      1.000000
  0.000000  0.250000  0.000000      2.000000
  0.250000  0.250000  0.000000      2.000000
  0.500000  0.250000  0.000000      2.000000
 -0.250000  0.250000  0.000000      2.000000
  0.000000  0.500000  0.000000      1.000000
  0.250000  0.500000  0.000000      2.000000
  0.500000  0.500000  0.000000      1.000000
 
 Following cartesian coordinates:
            Coordinates               Weight
  0.000000  0.000000  0.000000      1.000000
  0.033142  0.019135  0.000000      2.000000
  0.066285  0.038270  0.000000      1.000000
  0.000000  0.038270  0.000000      2.000000
  0.033142  0.057404  0.000000      2.000000
  0.066285  0.076539  0.000000      2.000000
 -0.033142  0.019135  0.000000      2.000000
  0.000000  0.076539  0.000000      1.000000
  0.033142  0.095674  0.000000      2.000000
  0.066285  0.114809  0.000000      1.000000
 


--------------------------------------------------------------------------------------------------------




 Dimension of arrays:
   k-points           NKPTS =     10   k-points in BZ     NKDIM =     10   number of bands    NBANDS=    241
   number of dos      NEDOS =    301   number of ions     NIONS =     41
   non local maximal  LDIM  =      6   non local SUM 2l+1 LMDIM =     18
   total plane-waves  NPLWV = 139968
   max r-space proj   IRMAX =   1939   max aug-charges    IRDMAX=   4362
   dimension x,y,z NGX =    36 NGY =   36 NGZ =  108
   dimension x,y,z NGXF=    72 NGYF=   72 NGZF=  216
   support grid    NGXF=    72 NGYF=   72 NGZF=  216
   ions per type =              36   4   1
   NGX,Y,Z   is equivalent  to a cutoff of   7.93,  7.93,  8.12 a.u.
   NGXF,Y,Z  is equivalent  to a cutoff of  15.87, 15.87, 16.24 a.u.

 SYSTEM =  Ni(111) + CH4, PAW 3x3 s.u.c. 4L - Step 
 POSCAR =   CH4 + Ni(111) - Asymptotic             

 Startparameter for this run:
   NWRITE =      2    write-flag & timer
   PREC   = normal    normal or accurate (medium, high low for compatibility)
   ISTART =      0    job   : 0-new  1-cont  2-samecut
   ICHARG =      2    charge: 1-file 2-atom 10-const
   ISPIN  =      2    spin polarized calculation?
   LNONCOLLINEAR =      F non collinear calculations
   LSORBIT =      F    spin-orbit coupling
   INIWAV =      1    electr: 0-lowe 1-rand  2-diag
   LASPH  =      T    aspherical Exc in radial PAW
   METAGGA=      F    non-selfconsistent MetaGGA calc.

 Electronic Relaxation 1
   ENCUT  =  350.0 eV  25.72 Ry    5.07 a.u.  11.51 11.51 33.74*2*pi/ulx,y,z
   ENINI  =  350.0     initial cutoff
   ENAUG  =  644.9 eV  augmentation charge cutoff
   NELM   =     60;   NELMIN=  2; NELMDL=-12     # of ELM steps 
   EDIFF  = 0.1E-03   stopping-criterion for ELM
   LREAL  =      T    real-space projection
   NLSPLINE    = F    spline interpolate recip. space projectors
   LCOMPAT=      F    compatible to vasp.4.4
   GGA_COMPAT  = T    GGA compatible to vasp.4.4-vasp.4.6
   LMAXPAW     = -100 max onsite density
   LMAXMIX     =    2 max onsite mixed and CHGCAR
   VOSKOWN=      0    Vosko Wilk Nusair interpolation
   ROPT   =   -0.00050  -0.00050  -0.00050
 Ionic relaxation
   EDIFFG = -.1E-01   stopping-criterion for IOM
   NSW    =    500    number of steps for IOM
   NBLOCK =      1;   KBLOCK =    500    inner block; outer block 
   IBRION =      1    ionic relax: 0-MD 1-quasi-New 2-CG
   NFREE  =      0    steps in history (QN), initial steepest desc. (CG)
   ISIF   =      2    stress and relaxation
   IWAVPR =     11    prediction:  0-non 1-charg 2-wave 3-comb
   ISYM   =      0    0-nonsym 1-usesym 2-fastsym
   LCORR  =      T    Harris-Foulkes like correction to forces

   POTIM  = 0.5000    time-step for ionic-motion
   TEIN   =    0.0    initial temperature
   TEBEG  =    0.0;   TEEND  =   0.0 temperature during run
   SMASS  =  -3.00    Nose mass-parameter (am)
   estimated Nose-frequenzy (Omega)   =  0.10E-29 period in steps =****** mass=  -0.130E-26a.u.
   SCALEE = 1.0000    scale energy and forces
   NPACO  =    256;   APACO  = 16.0  distance and # of slots for P.C.
   PSTRESS=    0.0 pullay stress

  Mass of Ions in am
   POMASS =  58.69  1.00 12.01
  Ionic Valenz
   ZVAL   =  10.00  1.00  4.00
  Atomic Wigner-Seitz radii
   RWIGS  =  -1.00 -1.00 -1.00
  virtual crystal weights 
   VCA    =   1.00  1.00  1.00
   NELECT =     368.0000    total number of electrons
   NUPDOWN=      -1.0000    fix difference up-down

 DOS related values:
   EMIN   =  10.00;   EMAX   =-10.00  energy-range for DOS
   EFERMI =   0.00
   ISMEAR =    -1;   SIGMA  =   0.10  broadening in eV -4-tet -1-fermi 0-gaus

 Electronic relaxation 2 (details)
   IALGO  =     68    algorithm
   LDIAG  =      T    sub-space diagonalisation (order eigenvalues)
   LSUBROT=      F    optimize rotation matrix (better conditioning)
   TURBO    =      0    0=normal 1=particle mesh
   IRESTART =      0    0=no restart 2=restart with 2 vectors
   NREBOOT  =      0    no. of reboots
   NMIN     =      0    reboot dimension
   EREF     =   0.00    reference energy to select bands
   IMIX   =      4    mixing-type and parameters
     AMIX     =   0.40;   BMIX     =  1.00
     AMIX_MAG =   1.60;   BMIX_MAG =  1.00
     AMIN     =   0.10
     WC   =   100.;   INIMIX=   1;  MIXPRE=   1;  MAXMIX= -45

 Intra band minimization:
   WEIMIN = 0.0010     energy-eigenvalue tresh-hold
   EBREAK =  0.10E-06  absolut break condition
   DEPER  =   0.30     relativ break condition  

   TIME   =   0.40     timestep for ELM

  volume/ion in A,a.u.               =      26.58       179.37
  Fermi-wavevector in a.u.,A,eV,Ry     =   1.140022  2.154330 17.682828  1.299651
  Thomas-Fermi vector in A             =   2.276725
 
 Write flags
   LWAVE        =      F    write WAVECAR
   LDOWNSAMPLE  =      F    k-point downsampling of WAVECAR
   LCHARG       =      T    write CHGCAR
   LVTOT        =      F    write LOCPOT, total local potential
   LVHAR        =      F    write LOCPOT, Hartree potential only
   LELF         =      F    write electronic localiz. function (ELF)
   LORBIT       =      0    0 simple, 1 ext, 2 COOP (PROOUT), +10 PAW based schemes


 Dipole corrections
   LMONO  =      F    monopole corrections only (constant potential shift)
   LDIPOL =      F    correct potential (dipole corrections)
   IDIPOL =      0    1-x, 2-y, 3-z, 4-all directions 
   EPSILON=  1.0000000 bulk dielectric constant

 Exchange correlation treatment:
   GGA     =    SR    GGA type
   LEXCH   =    47    internal setting for exchange type
   VOSKOWN=      0    Vosko Wilk Nusair interpolation
   LHFCALC =     F    Hartree Fock is set to
   LHFONE  =     F    Hartree Fock one center treatment
   AEXX    =    0.0000 exact exchange contribution

 vdW DFT:
   LUSE_VDW   =     T    switch on vdW DFT
   Zab_VDW    =-.8491    correlation parameter
   PARAM1     =0.3200
   PARAM2     =1.0000
   PARAM3     =0.0000
   -- rVV10 --
   BPARAM     = 6.3000
   CPARAM     = 0.0093

 Linear response parameters
   LEPSILON=     F    determine dielectric tensor
   LRPA    =     F    only Hartree local field effects (RPA)
   LNABLA  =     F    use nabla operator in PAW spheres
   LVEL    =     F    velocity operator in full k-point grid
   LINTERFAST=   F  fast interpolation
   KINTER  =     0    interpolate to denser k-point grid
   CSHIFT  =0.1000    complex shift for real part using Kramers Kronig
   OMEGAMAX=  -1.0    maximum frequency
   DEG_THRESHOLD= 0.2000000E-02 threshold for treating states as degnerate
   RTIME   =   -0.100 relaxation time in fs
  (WPLASMAI=    0.000 imaginary part of plasma frequency in eV, 0.658/RTIME)
   DFIELD  = 0.0000000 0.0000000 0.0000000 field for delta impulse in time
 
 Orbital magnetization related:
   ORBITALMAG=     F  switch on orbital magnetization
   LCHIMAG   =     F  perturbation theory with respect to B field
   DQ        =  0.001000  dq finite difference perturbation B field
   LLRAUG    =     F  two centre corrections for induced B field



--------------------------------------------------------------------------------------------------------


 quasi-Newton-method for relaxation of ions
   using selective dynamics as specified on POSCAR
   WARNING: If single coordinates had been selected the selection of coordinates
            is made according to the corresponding   d i r e c t   coordinates!
            Don't support selection of single cartesian coordinates -- sorry ...
  !
 charge density and potential will be updated during run
 spin polarized calculation
 RMM-DIIS sequential band-by-band and
  variant of blocked Davidson during initial phase
 perform sub-space diagonalisation
    before iterative eigenvector-optimisation
 modified Broyden-mixing scheme, WC =      100.0
 initial mixing is a Kerker type mixing with AMIX =  0.4000 and BMIX =      1.0000
 Hartree-type preconditioning will be used
 using additional bands           57
 real space projection scheme for non local part
 use partial core corrections
 calculate Harris-corrections to forces 
   (improved forces if not selfconsistent)
 use gradient corrections 
 use of overlap-Matrix (Vanderbilt PP)
 Fermi-smearing in eV        SIGMA  =   0.10


--------------------------------------------------------------------------------------------------------


  energy-cutoff  :      350.00
  volume of cell :     1089.76
      direct lattice vectors                 reciprocal lattice vectors
     7.543189327  0.000000000  0.000000000     0.132569919  0.076539279  0.000000000
    -3.771594664  6.532593583  0.000000000     0.000000000  0.153078557  0.000000000
     0.000000000  0.000000000 22.115230000     0.000000000  0.000000000  0.045217707

  length of vectors
     7.543189327  7.543189327 22.115230000     0.153078557  0.153078557  0.045217707


 
 k-points in units of 2pi/SCALE and weight: K-points                                
   0.00000000  0.00000000  0.00000000       0.062
   0.03314248  0.01913482  0.00000000       0.125
   0.06628496  0.03826964  0.00000000       0.062
   0.00000000  0.03826964  0.00000000       0.125
   0.03314248  0.05740446  0.00000000       0.125
   0.06628496  0.07653928  0.00000000       0.125
  -0.03314248  0.01913482  0.00000000       0.125
   0.00000000  0.07653928  0.00000000       0.062
   0.03314248  0.09567410  0.00000000       0.125
   0.06628496  0.11480892  0.00000000       0.062
 
 k-points in reciprocal lattice and weights: K-points                                
   0.00000000  0.00000000  0.00000000       0.062
   0.25000000 -0.00000000  0.00000000       0.125
   0.50000000 -0.00000000  0.00000000       0.062
   0.00000000  0.25000000  0.00000000       0.125
   0.25000000  0.25000000  0.00000000       0.125
   0.50000000  0.25000000  0.00000000       0.125
  -0.25000000  0.25000000  0.00000000       0.125
   0.00000000  0.50000000  0.00000000       0.062
   0.25000000  0.50000000  0.00000000       0.125
   0.50000000  0.50000000  0.00000000       0.062
 
 position of ions in fractional coordinates (direct lattice) 
   0.00000000  0.00000000  0.00000000
   0.00000000  0.33333333  0.00000000
   0.00000000  0.66666667  0.00000000
   0.33333333  0.00000000  0.00000000
   0.33333333  0.33333333  0.00000000
   0.33333333  0.66666667  0.00000000
   0.66666667  0.00000000  0.00000000
   0.66666667  0.33333333  0.00000000
   0.66666667  0.66666667  0.00000000
   0.44444444  0.22222222  0.09193664
   0.44444444  0.55555556  0.09193664
   0.44444444  0.88888889  0.09193664
   0.77777778  0.22222222  0.09193664
   0.77777778  0.55555556  0.09193664
   0.77777778  0.88888889  0.09193664
   0.11111111  0.22222222  0.09193664
   0.11111111  0.55555556  0.09193664
   0.11111111  0.88888889  0.09193664
   0.22222406  0.11110901  0.18464877
   0.22222939  0.44443757  0.18464967
   0.22223197  0.77778449  0.18464108
   0.55554664  0.11109982  0.18463973
   0.55554137  0.44442838  0.18464832
   0.55555079  0.77777837  0.18464018
   0.88889733  0.11110442  0.18464289
   0.88889455  0.44444063  0.18464199
   0.88890530  0.77779062  0.18464244
   0.00001563  0.00000864  0.27654246
   0.00000690  0.33332090  0.27653160
   0.00001708  0.66667242  0.27652392
   0.33333534  0.00000306  0.27654065
   0.33332011  0.33331172  0.27655647
   0.33333315  0.66666630  0.27653386
   0.66667137  0.00000098  0.27652708
   0.66666264  0.33331325  0.27652392
   0.66667190  0.66667089  0.27651668
   0.41246587  0.49160323  0.65478963
   0.41246587  0.25416596  0.65478963
   0.17502860  0.25416596  0.65478963
   0.33332011  0.33331172  0.58866446
   0.33332011  0.33331172  0.63825834
 
 position of ions in cartesian coordinates  (Angst):
   0.00000000  0.00000000  0.00000000
  -1.25719822  2.17753119  0.00000000
  -2.51439644  4.35506239  0.00000000
   2.51439644  0.00000000  0.00000000
   1.25719822  2.17753119  0.00000000
  -0.00000000  4.35506239  0.00000000
   5.02879288  0.00000000  0.00000000
   3.77159466  2.17753119  0.00000000
   2.51439644  4.35506239  0.00000000
   2.51439644  1.45168746  2.03320000
   1.25719822  3.62921866  2.03320000
  -0.00000000  5.80674985  2.03320000
   5.02879288  1.45168746  2.03320000
   3.77159466  3.62921866  2.03320000
   2.51439644  5.80674985  2.03320000
   0.00000000  1.45168746  2.03320000
  -1.25719822  3.62921866  2.03320000
  -2.51439644  5.80674985  2.03320000
   1.25722000  0.72583000  4.08355000
   0.00008000  2.90333000  4.08357000
  -1.25715000  5.08095000  4.08338000
   3.77157000  0.72577000  4.08335000
   2.51435000  2.90327000  4.08354000
   1.25716000  5.08091000  4.08336000
   6.28608000  0.72580000  4.08342000
   5.02885000  2.90335000  4.08340000
   3.77167000  5.08099000  4.08341000
   0.00008534  0.00005642  6.11580000
  -1.25709933  2.17745000  6.11556000
  -2.51428933  4.35510000  6.11539000
   2.51440000  0.00002000  6.11576000
   1.25718000  2.17739000  6.11611000
  -0.00000000  4.35506000  6.11561000
   5.02882466  0.00000642  6.11546000
   3.77164000  2.17740000  6.11539000
   2.51442000  4.35509000  6.11523000
   1.25718000  3.21144410 14.48082333
   2.15269712  1.66036295 14.48082333
   0.36166288  1.66036295 14.48082333
   1.25718000  2.17739000 13.01845000
   1.25718000  2.17739000 14.11523000
 


--------------------------------------------------------------------------------------------------------


 k-point  1 :   0.0000 0.0000 0.0000  plane waves:   16279
 k-point  2 :   0.2500-0.0000 0.0000  plane waves:   16222
 k-point  3 :   0.5000-0.0000 0.0000  plane waves:   16148
 k-point  4 :   0.0000 0.2500 0.0000  plane waves:   16222
 k-point  5 :   0.2500 0.2500 0.0000  plane waves:   16204
 k-point  6 :   0.5000 0.2500 0.0000  plane waves:   16204
 k-point  7 :  -0.2500 0.2500 0.0000  plane waves:   16222
 k-point  8 :   0.0000 0.5000 0.0000  plane waves:   16148
 k-point  9 :   0.2500 0.5000 0.0000  plane waves:   16204
 k-point 10 :   0.5000 0.5000 0.0000  plane waves:   16148

 maximum and minimum number of plane-waves per node :       526      489

 maximum number of plane-waves:     16279
 maximum index in each direction: 
   IXMAX=   11   IYMAX=   11   IZMAX=   33
   IXMIN=  -12   IYMIN=  -12   IZMIN=  -33


 real space projection operators:
  total allocation   :       9426.17 KBytes
  max/ min on nodes  :        515.83        243.84


 parallel 3D FFT for wavefunctions:
    minimum data exchange during FFTs selected (reduces bandwidth)
 parallel 3D FFT for charge:
    minimum data exchange during FFTs selected (reduces bandwidth)


 total amount of memory used by VASP MPI-rank0    80672. kBytes
=======================================================================

   base      :      30000. kBytes
   nonlr-proj:       1930. kBytes
   fftplans  :       1735. kBytes
   grid      :       4761. kBytes
   one-center:         62. kBytes
   wavefun   :      42184. kBytes
 
     INWAV:  cpu time    0.0000: real time    0.0002
 Broyden mixing: mesh for mixing (old mesh)
   NGX = 23   NGY = 23   NGZ = 67
  (NGX  = 72   NGY  = 72   NGZ  =216)
  gives a total of  35443 points

 initial charge density was supplied:
 charge density of overlapping atoms calculated
 number of electron     368.0000000 magnetization      41.0000000
 keeping initial charge density in first step


--------------------------------------------------------------------------------------------------------


 Maximum index for non-local projection operator          298
 Maximum index for augmentation-charges          412 (set IRDMAX)


--------------------------------------------------------------------------------------------------------


 First call to EWALD:  gamma=   0.172
 Maximum number of real-space cells 4x 4x 2
 Maximum number of reciprocal cells 2x 2x 5

    FEWALD:  cpu time    0.0026: real time    0.0026


--------------------------------------- Iteration      1(   1)  ---------------------------------------


vdW kernel read from vdw_kernel.bindat
  0.0000  0.2424  0.5071  0.7962  1.1119  1.4567  1.8333  2.2446  2.6937  3.1842
  3.7199  4.3049  4.9438  5.6415  6.4036  7.2358  8.1446  9.1372 10.2212 11.4050
 12.6979 14.1099 15.6519 17.3360 19.1751 21.1837 23.3773 25.7729 28.3892 31.2465
 34.3669 37.7748 41.4965 45.5611 50.0000
 
    POTLOK:  cpu time    1.9648: real time    2.0906
    SETDIJ:  cpu time    1.3116: real time    1.3207
     EDDAV:  cpu time   22.2554: real time   22.4111
       DOS:  cpu time    0.0034: real time    0.0047
    --------------------------------------------
      LOOP:  cpu time   25.5352: real time   25.8271

 eigenvalue-minimisations  :  9640
 total energy-change (2. order) : 0.2533833E+04  (-0.1276956E+05)
 number of electron     368.0000000 magnetization      41.0000000
 augmentation part      368.0000000 magnetization      41.0000000

 Free energy of the ion-electron system (eV)
  ---------------------------------------------------
  alpha Z        PSCENC =       630.21365347
  Ewald energy   TEWEN  =    139348.96655322
  -Hartree energ DENC   =   -177447.68489236
  -exchange      EXHF   =         0.00000000
  -V(xc)+E(xc)   XCENC  =      1116.72680870
  PAW double counting   =     34840.90210441   -37215.78412597
  entropy T*S    EENTRO =        -0.65949716
  eigenvalues    EBANDS =      2056.12562193
  atomic energy  EATOM  =     39205.02725571
  Solvation  Ediel_sol  =         0.00000000
  ---------------------------------------------------
  free energy    TOTEN  =      2533.83348196 eV

  energy without entropy =     2534.49297912  energy(sigma->0) =     2534.16323054


--------------------------------------------------------------------------------------------------------




--------------------------------------- Iteration      1(   2)  ---------------------------------------


     EDDAV:  cpu time   22.2359: real time   22.3549
       DOS:  cpu time    0.0042: real time    0.0042
    --------------------------------------------
      LOOP:  cpu time   22.2401: real time   22.3591

 eigenvalue-minimisations  :  9640
 total energy-change (2. order) :-0.2408787E+04  (-0.2276762E+04)
 number of electron     368.0000000 magnetization      41.0000000
 augmentation part      368.0000000 magnetization      41.0000000

 Free energy of the ion-electron system (eV)
  ---------------------------------------------------
  alpha Z        PSCENC =       630.21365347
  Ewald energy   TEWEN  =    139348.96655322
  -Hartree energ DENC   =   -177447.68489236
  -exchange      EXHF   =         0.00000000
  -V(xc)+E(xc)   XCENC  =      1116.72680870
  PAW double counting   =     34840.90210441   -37215.78412597
  entropy T*S    EENTRO =        -1.52503931
  eigenvalues    EBANDS =      -351.79622863
  atomic energy  EATOM  =     39205.02725571
  Solvation  Ediel_sol  =         0.00000000
  ---------------------------------------------------
  free energy    TOTEN  =       125.04608924 eV

  energy without entropy =      126.57112855  energy(sigma->0) =      125.80860890


--------------------------------------------------------------------------------------------------------




--------------------------------------- Iteration      1(   3)  ---------------------------------------


     EDDAV:  cpu time   23.7336: real time   24.0664
       DOS:  cpu time    0.0043: real time    0.0043
    --------------------------------------------
      LOOP:  cpu time   23.7379: real time   24.0707

 eigenvalue-minimisations  : 10422
 total energy-change (2. order) :-0.2302865E+03  (-0.2055259E+03)
 number of electron     368.0000000 magnetization      41.0000000
 augmentation part      368.0000000 magnetization      41.0000000

 Free energy of the ion-electron system (eV)
  ---------------------------------------------------
  alpha Z        PSCENC =       630.21365347
  Ewald energy   TEWEN  =    139348.96655322
  -Hartree energ DENC   =   -177447.68489236
  -exchange      EXHF   =         0.00000000
  -V(xc)+E(xc)   XCENC  =      1116.72680870
  PAW double counting   =     34840.90210441   -37215.78412597
  entropy T*S    EENTRO =        -2.19394878
  eigenvalues    EBANDS =      -581.41386867
  atomic energy  EATOM  =     39205.02725571
  Solvation  Ediel_sol  =         0.00000000
  ---------------------------------------------------
  free energy    TOTEN  =      -105.24046026 eV

  energy without entropy =     -103.04651148  energy(sigma->0) =     -104.14348587


--------------------------------------------------------------------------------------------------------




--------------------------------------- Iteration      1(   4)  ---------------------------------------


     EDDAV:  cpu time   23.5752: real time   23.6986
       DOS:  cpu time    0.0044: real time    0.0044
    --------------------------------------------
      LOOP:  cpu time   23.5795: real time   23.7030

 eigenvalue-minimisations  : 10408
 total energy-change (2. order) :-0.9044306E+01  (-0.8928935E+01)
 number of electron     368.0000000 magnetization      41.0000000
 augmentation part      368.0000000 magnetization      41.0000000

 Free energy of the ion-electron system (eV)
  ---------------------------------------------------
  alpha Z        PSCENC =       630.21365347
  Ewald energy   TEWEN  =    139348.96655322
  -Hartree energ DENC   =   -177447.68489236
  -exchange      EXHF   =         0.00000000
  -V(xc)+E(xc)   XCENC  =      1116.72680870
  PAW double counting   =     34840.90210441   -37215.78412597
  entropy T*S    EENTRO =        -2.19792725
  eigenvalues    EBANDS =      -590.45419634
  atomic energy  EATOM  =     39205.02725571
  Solvation  Ediel_sol  =         0.00000000
  ---------------------------------------------------
  free energy    TOTEN  =      -114.28476640 eV

  energy without entropy =     -112.08683915  energy(sigma->0) =     -113.18580278


--------------------------------------------------------------------------------------------------------




--------------------------------------- Iteration      1(   5)  ---------------------------------------


     EDDAV:  cpu time   28.3775: real time   28.5267
       DOS:  cpu time    0.0044: real time    0.0044
    --------------------------------------------
      LOOP:  cpu time   28.3820: real time   28.5311

 eigenvalue-minimisations  : 13160
 total energy-change (2. order) :-0.2482475E+00  (-0.2480344E+00)
 number of electron     368.0000000 magnetization      41.0000000
 augmentation part      368.0000000 magnetization      41.0000000

 Free energy of the ion-electron system (eV)
  ---------------------------------------------------
  alpha Z        PSCENC =       630.21365347
  Ewald energy   TEWEN  =    139348.96655322
  -Hartree energ DENC   =   -177447.68489236
  -exchange      EXHF   =         0.00000000
  -V(xc)+E(xc)   XCENC  =      1116.72680870
  PAW double counting   =     34840.90210441   -37215.78412597
  entropy T*S    EENTRO =        -2.19804855
  eigenvalues    EBANDS =      -590.70232252
  atomic energy  EATOM  =     39205.02725571
  Solvation  Ediel_sol  =         0.00000000
  ---------------------------------------------------
  free energy    TOTEN  =      -114.53301388 eV

  energy without entropy =     -112.33496534  energy(sigma->0) =     -113.43398961


--------------------------------------------------------------------------------------------------------




--------------------------------------- Iteration      1(   6)  ---------------------------------------


     EDDAV:  cpu time   28.4602: real time   28.6088
       DOS:  cpu time    0.0044: real time    0.0044
    --------------------------------------------
      LOOP:  cpu time   28.4646: real time   28.6132

 eigenvalue-minimisations  : 13215
 total energy-change (2. order) :-0.1295948E-01  (-0.1295908E-01)
 number of electron     368.0000000 magnetization      41.0000000
 augmentation part      368.0000000 magnetization      41.0000000

 Free energy of the ion-electron system (eV)
  ---------------------------------------------------
  alpha Z        PSCENC =       630.21365347
  Ewald energy   TEWEN  =    139348.96655322
  -Hartree energ DENC   =   -177447.68489236
  -exchange      EXHF   =         0.00000000
  -V(xc)+E(xc)   XCENC  =      1116.72680870
  PAW double counting   =     34840.90210441   -37215.78412597
  entropy T*S    EENTRO =        -2.19806012
  eigenvalues    EBANDS =      -590.71527043
  atomic energy  EATOM  =     39205.02725571
  Solvation  Ediel_sol  =         0.00000000
  ---------------------------------------------------
  free energy    TOTEN  =      -114.54597336 eV

  energy without entropy =     -112.34791324  energy(sigma->0) =     -113.44694330


--------------------------------------------------------------------------------------------------------




--------------------------------------- Iteration      1(   7)  ---------------------------------------


     EDDAV:  cpu time   23.3227: real time   23.4435
       DOS:  cpu time    0.0044: real time    0.0044
    --------------------------------------------
      LOOP:  cpu time   23.3271: real time   23.4479

 eigenvalue-minimisations  : 10239
 total energy-change (2. order) :-0.2880779E-03  (-0.2880744E-03)
 number of electron     368.0000000 magnetization      41.0000000
 augmentation part      368.0000000 magnetization      41.0000000

 Free energy of the ion-electron system (eV)
  ---------------------------------------------------
  alpha Z        PSCENC =       630.21365347
  Ewald energy   TEWEN  =    139348.96655322
  -Hartree energ DENC   =   -177447.68489236
  -exchange      EXHF   =         0.00000000
  -V(xc)+E(xc)   XCENC  =      1116.72680870
  PAW double counting   =     34840.90210441   -37215.78412597
  entropy T*S    EENTRO =        -2.19806093
  eigenvalues    EBANDS =      -590.71555769
  atomic energy  EATOM  =     39205.02725571
  Solvation  Ediel_sol  =         0.00000000
  ---------------------------------------------------
  free energy    TOTEN  =      -114.54626144 eV

  energy without entropy =     -112.34820051  energy(sigma->0) =     -113.44723097


--------------------------------------------------------------------------------------------------------




--------------------------------------- Iteration      1(   8)  ---------------------------------------


     EDDAV:  cpu time   17.0541: real time   17.1413
       DOS:  cpu time    0.0042: real time    0.0042
    --------------------------------------------
      LOOP:  cpu time   17.0583: real time   17.1455

 eigenvalue-minimisations  :  6600
 total energy-change (2. order) :-0.1068279E-04  (-0.1068273E-04)
 number of electron     368.0000000 magnetization      41.0000000
 augmentation part      368.0000000 magnetization      41.0000000

 Free energy of the ion-electron system (eV)
  ---------------------------------------------------
  alpha Z        PSCENC =       630.21365347
  Ewald energy   TEWEN  =    139348.96655322
  -Hartree energ DENC   =   -177447.68489236
  -exchange      EXHF   =         0.00000000
  -V(xc)+E(xc)   XCENC  =      1116.72680870
  PAW double counting   =     34840.90210441   -37215.78412597
  entropy T*S    EENTRO =        -2.19806093
  eigenvalues    EBANDS =      -590.71556839
  atomic energy  EATOM  =     39205.02725571
  Solvation  Ediel_sol  =         0.00000000
  ---------------------------------------------------
  free energy    TOTEN  =      -114.54627212 eV

  energy without entropy =     -112.34821120  energy(sigma->0) =     -113.44724166


--------------------------------------------------------------------------------------------------------




--------------------------------------- Iteration      1(   9)  ---------------------------------------


     EDDAV:  cpu time   15.4716: real time   15.5499
       DOS:  cpu time    0.0043: real time    0.0043
    --------------------------------------------
      LOOP:  cpu time   15.4759: real time   15.5542

 eigenvalue-minimisations  :  5688
 total energy-change (2. order) :-0.1068423E-05  (-0.1068375E-05)
 number of electron     368.0000000 magnetization      41.0000000
 augmentation part      368.0000000 magnetization      41.0000000

 Free energy of the ion-electron system (eV)
  ---------------------------------------------------
  alpha Z        PSCENC =       630.21365347
  Ewald energy   TEWEN  =    139348.96655322
  -Hartree energ DENC   =   -177447.68489236
  -exchange      EXHF   =         0.00000000
  -V(xc)+E(xc)   XCENC  =      1116.72680870
  PAW double counting   =     34840.90210441   -37215.78412597
  entropy T*S    EENTRO =        -2.19806092
  eigenvalues    EBANDS =      -590.71556946
  atomic energy  EATOM  =     39205.02725571
  Solvation  Ediel_sol  =         0.00000000
  ---------------------------------------------------
  free energy    TOTEN  =      -114.54627319 eV

  energy without entropy =     -112.34821227  energy(sigma->0) =     -113.44724273


--------------------------------------------------------------------------------------------------------




--------------------------------------- Iteration      1(  10)  ---------------------------------------


     EDDAV:  cpu time   14.9860: real time   15.0613
       DOS:  cpu time    0.0044: real time    0.0044
    --------------------------------------------
      LOOP:  cpu time   14.9905: real time   15.0658

 eigenvalue-minimisations  :  5400
 total energy-change (2. order) :-0.4617468E-06  (-0.4617013E-06)
 number of electron     368.0000000 magnetization      41.0000000
 augmentation part      368.0000000 magnetization      41.0000000

 Free energy of the ion-electron system (eV)
  ---------------------------------------------------
  alpha Z        PSCENC =       630.21365347
  Ewald energy   TEWEN  =    139348.96655322
  -Hartree energ DENC   =   -177447.68489236
  -exchange      EXHF   =         0.00000000
  -V(xc)+E(xc)   XCENC  =      1116.72680870
  PAW double counting   =     34840.90210441   -37215.78412597
  entropy T*S    EENTRO =        -2.19806092
  eigenvalues    EBANDS =      -590.71556992
  atomic energy  EATOM  =     39205.02725571
  Solvation  Ediel_sol  =         0.00000000
  ---------------------------------------------------
  free energy    TOTEN  =      -114.54627365 eV

  energy without entropy =     -112.34821274  energy(sigma->0) =     -113.44724320


--------------------------------------------------------------------------------------------------------




--------------------------------------- Iteration      1(  11)  ---------------------------------------


     EDDAV:  cpu time   14.8754: real time   14.9506
       DOS:  cpu time    0.0044: real time    0.0044
    --------------------------------------------
      LOOP:  cpu time   14.8798: real time   14.9550

 eigenvalue-minimisations  :  5344
 total energy-change (2. order) :-0.2345259E-06  (-0.2345894E-06)
 number of electron     368.0000000 magnetization      41.0000000
 augmentation part      368.0000000 magnetization      41.0000000

 Free energy of the ion-electron system (eV)
  ---------------------------------------------------
  alpha Z        PSCENC =       630.21365347
  Ewald energy   TEWEN  =    139348.96655322
  -Hartree energ DENC   =   -177447.68489236
  -exchange      EXHF   =         0.00000000
  -V(xc)+E(xc)   XCENC  =      1116.72680870
  PAW double counting   =     34840.90210441   -37215.78412597
  entropy T*S    EENTRO =        -2.19806092
  eigenvalues    EBANDS =      -590.71557016
  atomic energy  EATOM  =     39205.02725571
  Solvation  Ediel_sol  =         0.00000000
  ---------------------------------------------------
  free energy    TOTEN  =      -114.54627389 eV

  energy without entropy =     -112.34821297  energy(sigma->0) =     -113.44724343


--------------------------------------------------------------------------------------------------------




--------------------------------------- Iteration      1(  12)  ---------------------------------------


     EDDAV:  cpu time   14.8717: real time   14.9486
       DOS:  cpu time    0.0044: real time    0.0044
    CHARGE:  cpu time    1.6105: real time    1.6164
    MIXING:  cpu time    0.0021: real time    0.0033
    --------------------------------------------
      LOOP:  cpu time   16.4887: real time   16.5726

 eigenvalue-minimisations  :  5328
 total energy-change (2. order) :-0.1262160E-06  (-0.1260873E-06)
 number of electron     367.9996566 magnetization      39.5733387
 augmentation part      206.3298859 magnetization      34.8250815

 Broyden mixing:
  rms(total) = 0.51566E+01    rms(broyden)= 0.51554E+01
  rms(prec ) = 0.54001E+01
  weight for this iteration     100.00

 Free energy of the ion-electron system (eV)
  ---------------------------------------------------
  alpha Z        PSCENC =       630.21365347
  Ewald energy   TEWEN  =    139348.96655322
  -Hartree energ DENC   =   -177447.68489236
  -exchange      EXHF   =         0.00000000
  -V(xc)+E(xc)   XCENC  =      1116.72680870
  PAW double counting   =     34840.90210441   -37215.78412597
  entropy T*S    EENTRO =        -2.19806092
  eigenvalues    EBANDS =      -590.71557029
  atomic energy  EATOM  =     39205.02725571
  Solvation  Ediel_sol  =         0.00000000
  ---------------------------------------------------
  free energy    TOTEN  =      -114.54627402 eV

  energy without entropy =     -112.34821310  energy(sigma->0) =     -113.44724356


--------------------------------------------------------------------------------------------------------




--------------------------------------- Iteration      1(  13)  ---------------------------------------


    POTLOK:  cpu time    1.5669: real time    1.5714
    SETDIJ:  cpu time    1.3080: real time    1.3113
    EDDIAG:  cpu time    4.4499: real time    4.4702
  RMM-DIIS:  cpu time   15.8117: real time   15.8659
    ORTHCH:  cpu time    0.4144: real time    0.4165
       DOS:  cpu time    0.0047: real time    0.0047
    CHARGE:  cpu time    3.6975: real time    3.7068
    MIXING:  cpu time    0.0014: real time    0.0045
    --------------------------------------------
      LOOP:  cpu time   27.2546: real time   27.3513

 eigenvalue-minimisations  :  9682
 total energy-change (2. order) :-0.1115241E+02  (-0.3340464E+02)
 number of electron     367.9996007 magnetization      38.8005321
 augmentation part      234.3715911 magnetization      35.9823037

 Broyden mixing:
  rms(total) = 0.73521E+01    rms(broyden)= 0.73516E+01
  rms(prec ) = 0.79052E+01
  weight for this iteration     100.00

 eigenvalues of (default mixing * dielectric matrix)
  average eigenvalue GAMMA=   0.3173
  0.3173

 Free energy of the ion-electron system (eV)
  ---------------------------------------------------
  alpha Z        PSCENC =       630.21365347
  Ewald energy   TEWEN  =    139348.96655322
  -Hartree energ DENC   =   -176823.18580972
  -exchange      EXHF   =         0.00000000
  -V(xc)+E(xc)   XCENC  =      1079.16808828
  PAW double counting   =     36689.28104989   -38935.00714083
  entropy T*S    EENTRO =        -1.54244003
  eigenvalues    EBANDS =     -1318.61989421
  atomic energy  EATOM  =     39205.02725571
  Solvation  Ediel_sol  =         0.00000000
  ---------------------------------------------------
  free energy    TOTEN  =      -125.69868422 eV

  energy without entropy =     -124.15624420  energy(sigma->0) =     -124.92746421


--------------------------------------------------------------------------------------------------------




--------------------------------------- Iteration      1(  14)  ---------------------------------------


    POTLOK:  cpu time    1.5647: real time    1.5695
    SETDIJ:  cpu time    1.3080: real time    1.3113
    EDDIAG:  cpu time    4.4539: real time    4.4717
  RMM-DIIS:  cpu time   12.2425: real time   12.2912
    ORTHCH:  cpu time    0.4134: real time    0.4155
       DOS:  cpu time    0.0047: real time    0.0047
    CHARGE:  cpu time    1.5839: real time    1.5894
    MIXING:  cpu time    0.0013: real time    0.0013
    --------------------------------------------
      LOOP:  cpu time   21.5723: real time   21.6546

 eigenvalue-minimisations  :  9697
 total energy-change (2. order) :-0.3355372E+01  (-0.1000959E+02)
 number of electron     367.9996146 magnetization      37.8202198
 augmentation part      225.8236221 magnetization      33.9376424

 Broyden mixing:
  rms(total) = 0.75869E+01    rms(broyden)= 0.75859E+01
  rms(prec ) = 0.84992E+01
  weight for this iteration     100.00

 eigenvalues of (default mixing * dielectric matrix)
  average eigenvalue GAMMA=   0.3903
  0.6021  0.1785

 Free energy of the ion-electron system (eV)
  ---------------------------------------------------
  alpha Z        PSCENC =       630.21365347
  Ewald energy   TEWEN  =    139348.96655322
  -Hartree energ DENC   =   -176835.85490494
  -exchange      EXHF   =         0.00000000
  -V(xc)+E(xc)   XCENC  =      1086.29227052
  PAW double counting   =     37427.27688990   -39742.86950225
  entropy T*S    EENTRO =        -2.06949354
  eigenvalues    EBANDS =     -1246.03677826
  atomic energy  EATOM  =     39205.02725571
  Solvation  Ediel_sol  =         0.00000000
  ---------------------------------------------------
  free energy    TOTEN  =      -129.05405616 eV

  energy without entropy =     -126.98456263  energy(sigma->0) =     -128.01930939


--------------------------------------------------------------------------------------------------------




--------------------------------------- Iteration      1(  15)  ---------------------------------------


    POTLOK:  cpu time    1.5649: real time    1.5706
    SETDIJ:  cpu time    1.3090: real time    1.3120
    EDDIAG:  cpu time    6.2870: real time    6.3082
  RMM-DIIS:  cpu time   31.0120: real time   31.0955
    ORTHCH:  cpu time    0.4142: real time    0.4164
       DOS:  cpu time    0.0048: real time    0.0048
    CHARGE:  cpu time    3.6163: real time    3.6305
    MIXING:  cpu time    0.0014: real time    0.0014
    --------------------------------------------
      LOOP:  cpu time   44.2097: real time   44.3393

 eigenvalue-minimisations  :  9686
 total energy-change (2. order) : 0.3772673E+02  (-0.3289900E+01)
 number of electron     367.9996197 magnetization      35.6430566
 augmentation part      224.1881384 magnetization      31.2491671

 Broyden mixing:
  rms(total) = 0.27868E+01    rms(broyden)= 0.27853E+01
  rms(prec ) = 0.31302E+01
  weight for this iteration     100.00

 eigenvalues of (default mixing * dielectric matrix)
  average eigenvalue GAMMA=   0.6494
  1.1719  0.6291  0.1472

 Free energy of the ion-electron system (eV)
  ---------------------------------------------------
  alpha Z        PSCENC =       630.21365347
  Ewald energy   TEWEN  =    139348.96655322
  -Hartree energ DENC   =   -177117.24771428
  -exchange      EXHF   =         0.00000000
  -V(xc)+E(xc)   XCENC  =      1089.29068293
  PAW double counting   =     38184.07001089   -40560.12220525
  entropy T*S    EENTRO =        -2.05161853
  eigenvalues    EBANDS =      -869.47394824
  atomic energy  EATOM  =     39205.02725571
  Solvation  Ediel_sol  =         0.00000000
  ---------------------------------------------------
  free energy    TOTEN  =       -91.32733008 eV

  energy without entropy =      -89.27571155  energy(sigma->0) =      -90.30152082


--------------------------------------------------------------------------------------------------------




--------------------------------------- Iteration      1(  16)  ---------------------------------------


    POTLOK:  cpu time    1.5658: real time    1.5705
    SETDIJ:  cpu time    1.3086: real time    1.3116
    EDDIAG:  cpu time   10.9374: real time   10.9672
  RMM-DIIS:  cpu time   17.2778: real time   17.5367
    ORTHCH:  cpu time    0.4127: real time    0.4149
       DOS:  cpu time    0.0048: real time    0.0048
    CHARGE:  cpu time    2.9098: real time    2.9177
    MIXING:  cpu time    0.0015: real time    0.0015
    --------------------------------------------
      LOOP:  cpu time   34.4184: real time   34.7249

 eigenvalue-minimisations  :  9681
 total energy-change (2. order) :-0.1187251E+02  (-0.7440652E+00)
 number of electron     367.9996190 magnetization      35.3985558
 augmentation part      222.6809608 magnetization      32.0175305

 Broyden mixing:
  rms(total) = 0.66618E+01    rms(broyden)= 0.66613E+01
  rms(prec ) = 0.85095E+01
  weight for this iteration     100.00

 eigenvalues of (default mixing * dielectric matrix)
  average eigenvalue GAMMA=   0.5281
  1.2296  0.6414  0.1528  0.0885

 Free energy of the ion-electron system (eV)
  ---------------------------------------------------
  alpha Z        PSCENC =       630.21365347
  Ewald energy   TEWEN  =    139348.96655322
  -Hartree energ DENC   =   -177103.21516954
  -exchange      EXHF   =         0.00000000
  -V(xc)+E(xc)   XCENC  =      1089.51453299
  PAW double counting   =     39275.86191395   -41695.10731723
  entropy T*S    EENTRO =        -1.67925821
  eigenvalues    EBANDS =      -852.78200062
  atomic energy  EATOM  =     39205.02725571
  Solvation  Ediel_sol  =         0.00000000
  ---------------------------------------------------
  free energy    TOTEN  =      -103.19983626 eV

  energy without entropy =     -101.52057806  energy(sigma->0) =     -102.36020716


--------------------------------------------------------------------------------------------------------




--------------------------------------- Iteration      1(  17)  ---------------------------------------


    POTLOK:  cpu time    1.5650: real time    1.5706
    SETDIJ:  cpu time    1.3084: real time    1.3116
    EDDIAG:  cpu time   10.0743: real time   10.1023
  RMM-DIIS:  cpu time   18.0891: real time   18.1521
    ORTHCH:  cpu time    0.4128: real time    0.4150
       DOS:  cpu time    0.0049: real time    0.0050
    CHARGE:  cpu time    1.5817: real time    1.5872
    MIXING:  cpu time    0.0016: real time    0.0016
    --------------------------------------------
      LOOP:  cpu time   33.0379: real time   33.1453

 eigenvalue-minimisations  :  9705
 total energy-change (2. order) : 0.7253310E+01  (-0.2523399E+00)
 number of electron     367.9996211 magnetization      34.1389398
 augmentation part      223.0105048 magnetization      30.3457805

 Broyden mixing:
  rms(total) = 0.50634E+01    rms(broyden)= 0.50624E+01
  rms(prec ) = 0.62679E+01
  weight for this iteration     100.00

 eigenvalues of (default mixing * dielectric matrix)
  average eigenvalue GAMMA=   0.5401
  1.4043  0.7152  0.4020  0.1422  0.0368

 Free energy of the ion-electron system (eV)
  ---------------------------------------------------
  alpha Z        PSCENC =       630.21365347
  Ewald energy   TEWEN  =    139348.96655322
  -Hartree energ DENC   =   -177108.68077919
  -exchange      EXHF   =         0.00000000
  -V(xc)+E(xc)   XCENC  =      1089.34639089
  PAW double counting   =     39347.99996364   -41769.50868584
  entropy T*S    EENTRO =        -2.06147943
  eigenvalues    EBANDS =      -837.24939848
  atomic energy  EATOM  =     39205.02725571
  Solvation  Ediel_sol  =         0.00000000
  ---------------------------------------------------
  free energy    TOTEN  =       -95.94652601 eV

  energy without entropy =      -93.88504658  energy(sigma->0) =      -94.91578630


--------------------------------------------------------------------------------------------------------




--------------------------------------- Iteration      1(  18)  ---------------------------------------


    POTLOK:  cpu time    1.5619: real time    1.5665
    SETDIJ:  cpu time    1.3086: real time    1.3116
    EDDIAG:  cpu time    4.4635: real time    4.4811
  RMM-DIIS:  cpu time   12.2577: real time   12.3048
    ORTHCH:  cpu time    0.4131: real time    0.4153
       DOS:  cpu time    0.0050: real time    0.0050
    CHARGE:  cpu time    1.5790: real time    1.5845
    MIXING:  cpu time    0.0016: real time    0.0016
    --------------------------------------------
      LOOP:  cpu time   21.5904: real time   21.6705

 eigenvalue-minimisations  :  9688
 total energy-change (2. order) : 0.7496826E+01  (-0.2344752E+00)
 number of electron     367.9996268 magnetization      33.0408699
 augmentation part      223.2234321 magnetization      28.6283641

 Broyden mixing:
  rms(total) = 0.80988E+00    rms(broyden)= 0.80693E+00
  rms(prec ) = 0.88289E+00
  weight for this iteration     100.00

 eigenvalues of (default mixing * dielectric matrix)
  average eigenvalue GAMMA=   0.5627
  1.5708  0.6584  0.6584  0.3080  0.1420  0.0386

 Free energy of the ion-electron system (eV)
  ---------------------------------------------------
  alpha Z        PSCENC =       630.21365347
  Ewald energy   TEWEN  =    139348.96655322
  -Hartree energ DENC   =   -177155.01089182
  -exchange      EXHF   =         0.00000000
  -V(xc)+E(xc)   XCENC  =      1088.54906414
  PAW double counting   =     39652.55984539   -42082.56851644
  entropy T*S    EENTRO =        -2.37549058
  eigenvalues    EBANDS =      -773.81117335
  atomic energy  EATOM  =     39205.02725571
  Solvation  Ediel_sol  =         0.00000000
  ---------------------------------------------------
  free energy    TOTEN  =       -88.44970027 eV

  energy without entropy =      -86.07420969  energy(sigma->0) =      -87.26195498


--------------------------------------------------------------------------------------------------------




--------------------------------------- Iteration      1(  19)  ---------------------------------------


    POTLOK:  cpu time    1.5627: real time    1.5673
    SETDIJ:  cpu time    1.3088: real time    1.3118
    EDDIAG:  cpu time    5.9127: real time    5.9332
  RMM-DIIS:  cpu time   13.3964: real time   13.4463
    ORTHCH:  cpu time    0.4137: real time    0.4159
       DOS:  cpu time    0.0049: real time    0.0049
    CHARGE:  cpu time    1.5833: real time    1.5888
    MIXING:  cpu time    0.0018: real time    0.0018
    --------------------------------------------
      LOOP:  cpu time   24.1843: real time   24.2700

 eigenvalue-minimisations  :  9707
 total energy-change (2. order) :-0.1175486E+01  (-0.9743647E-01)
 number of electron     367.9996266 magnetization      32.4600554
 augmentation part      223.2072283 magnetization      28.4255425

 Broyden mixing:
  rms(total) = 0.17125E+01    rms(broyden)= 0.17121E+01
  rms(prec ) = 0.19527E+01
  weight for this iteration     100.00

 eigenvalues of (default mixing * dielectric matrix)
  average eigenvalue GAMMA=   0.5163
  1.6290  0.6962  0.6962  0.3040  0.1415  0.0384  0.1090

 Free energy of the ion-electron system (eV)
  ---------------------------------------------------
  alpha Z        PSCENC =       630.21365347
  Ewald energy   TEWEN  =    139348.96655322
  -Hartree energ DENC   =   -177165.20842117
  -exchange      EXHF   =         0.00000000
  -V(xc)+E(xc)   XCENC  =      1088.31357187
  PAW double counting   =     39873.29538554   -42308.90772742
  entropy T*S    EENTRO =        -2.24543944
  eigenvalues    EBANDS =      -759.08001842
  atomic energy  EATOM  =     39205.02725571
  Solvation  Ediel_sol  =         0.00000000
  ---------------------------------------------------
  free energy    TOTEN  =       -89.62518665 eV

  energy without entropy =      -87.37974721  energy(sigma->0) =      -88.50246693


--------------------------------------------------------------------------------------------------------




--------------------------------------- Iteration      1(  20)  ---------------------------------------


    POTLOK:  cpu time    1.5642: real time    1.5698
    SETDIJ:  cpu time    1.3086: real time    1.3117
    EDDIAG:  cpu time    4.4686: real time    4.4865
  RMM-DIIS:  cpu time   12.2528: real time   12.3006
    ORTHCH:  cpu time    0.4129: real time    0.4150
       DOS:  cpu time    0.0050: real time    0.0050
    CHARGE:  cpu time    1.5833: real time    1.5888
    MIXING:  cpu time    0.0019: real time    0.0019
    --------------------------------------------
      LOOP:  cpu time   21.5973: real time   21.6794

 eigenvalue-minimisations  :  9704
 total energy-change (2. order) : 0.5908160E+00  (-0.6243337E-01)
 number of electron     367.9996279 magnetization      31.1938353
 augmentation part      223.2519031 magnetization      27.3945446

 Broyden mixing:
  rms(total) = 0.57766E+00    rms(broyden)= 0.57721E+00
  rms(prec ) = 0.60927E+00
  weight for this iteration     100.00

 eigenvalues of (default mixing * dielectric matrix)
  average eigenvalue GAMMA=   0.5329
  1.6625  0.6417  0.6417  0.5195  0.5195  0.1422  0.0385  0.0975

 Free energy of the ion-electron system (eV)
  ---------------------------------------------------
  alpha Z        PSCENC =       630.21365347
  Ewald energy   TEWEN  =    139348.96655322
  -Hartree energ DENC   =   -177167.41039090
  -exchange      EXHF   =         0.00000000
  -V(xc)+E(xc)   XCENC  =      1088.18037952
  PAW double counting   =     39977.08228880   -42415.16890576
  entropy T*S    EENTRO =        -2.30162442
  eigenvalues    EBANDS =      -753.62358030
  atomic energy  EATOM  =     39205.02725571
  Solvation  Ediel_sol  =         0.00000000
  ---------------------------------------------------
  free energy    TOTEN  =       -89.03437067 eV

  energy without entropy =      -86.73274625  energy(sigma->0) =      -87.88355846


--------------------------------------------------------------------------------------------------------




--------------------------------------- Iteration      1(  21)  ---------------------------------------


    POTLOK:  cpu time    1.5626: real time    1.5673
    SETDIJ:  cpu time    1.3087: real time    1.3117
    EDDIAG:  cpu time    4.4696: real time    4.4874
  RMM-DIIS:  cpu time   12.2688: real time   12.3162
    ORTHCH:  cpu time    0.4129: real time    0.4151
       DOS:  cpu time    0.0050: real time    0.0050
    CHARGE:  cpu time    1.5843: real time    1.5899
    MIXING:  cpu time    0.0020: real time    0.0020
    --------------------------------------------
      LOOP:  cpu time   21.6139: real time   21.6945

 eigenvalue-minimisations  :  9688
 total energy-change (2. order) :-0.1070980E+01  (-0.7556119E-01)
 number of electron     367.9996279 magnetization      29.5690069
 augmentation part      223.3395115 magnetization      26.2604848

 Broyden mixing:
  rms(total) = 0.15008E+01    rms(broyden)= 0.15007E+01
  rms(prec ) = 0.16131E+01
  weight for this iteration     100.00

 eigenvalues of (default mixing * dielectric matrix)
  average eigenvalue GAMMA=   0.5484
  1.7158  0.8600  0.8600  0.6760  0.4410  0.1422  0.0385  0.1012  0.1012

 Free energy of the ion-electron system (eV)
  ---------------------------------------------------
  alpha Z        PSCENC =       630.21365347
  Ewald energy   TEWEN  =    139348.96655322
  -Hartree energ DENC   =   -177172.70286424
  -exchange      EXHF   =         0.00000000
  -V(xc)+E(xc)   XCENC  =      1087.90248649
  PAW double counting   =     40118.68210928   -42559.32031725
  entropy T*S    EENTRO =        -2.25931952
  eigenvalues    EBANDS =      -746.61490775
  atomic energy  EATOM  =     39205.02725571
  Solvation  Ediel_sol  =         0.00000000
  ---------------------------------------------------
  free energy    TOTEN  =       -90.10535058 eV

  energy without entropy =      -87.84603106  energy(sigma->0) =      -88.97569082


--------------------------------------------------------------------------------------------------------




--------------------------------------- Iteration      1(  22)  ---------------------------------------


    POTLOK:  cpu time    1.5626: real time    1.5672
    SETDIJ:  cpu time    1.3086: real time    1.3117
    EDDIAG:  cpu time    4.4830: real time    4.5007
  RMM-DIIS:  cpu time   12.2790: real time   12.3266
    ORTHCH:  cpu time    0.4130: real time    0.4151
       DOS:  cpu time    0.0051: real time    0.0051
    CHARGE:  cpu time    1.5868: real time    1.5923
    MIXING:  cpu time    0.0022: real time    0.0022
    --------------------------------------------
      LOOP:  cpu time   21.6403: real time   21.7209

 eigenvalue-minimisations  :  9706
 total energy-change (2. order) :-0.1113816E+00  (-0.7686659E-01)
 number of electron     367.9996283 magnetization      29.2006587
 augmentation part      223.5071503 magnetization      26.5492050

 Broyden mixing:
  rms(total) = 0.10213E+01    rms(broyden)= 0.10211E+01
  rms(prec ) = 0.12317E+01
  weight for this iteration     100.00

 eigenvalues of (default mixing * dielectric matrix)
  average eigenvalue GAMMA=   0.5261
  1.6928  0.9248  0.9248  0.6888  0.4545  0.1968  0.1420  0.0385  0.1044  0.0939

 Free energy of the ion-electron system (eV)
  ---------------------------------------------------
  alpha Z        PSCENC =       630.21365347
  Ewald energy   TEWEN  =    139348.96655322
  -Hartree energ DENC   =   -177179.96843188
  -exchange      EXHF   =         0.00000000
  -V(xc)+E(xc)   XCENC  =      1087.66100919
  PAW double counting   =     40282.25428019   -42725.77069280
  entropy T*S    EENTRO =        -2.23438617
  eigenvalues    EBANDS =      -736.36597308
  atomic energy  EATOM  =     39205.02725571
  Solvation  Ediel_sol  =         0.00000000
  ---------------------------------------------------
  free energy    TOTEN  =       -90.21673215 eV

  energy without entropy =      -87.98234598  energy(sigma->0) =      -89.09953907


--------------------------------------------------------------------------------------------------------




--------------------------------------- Iteration      1(  23)  ---------------------------------------


    POTLOK:  cpu time    1.5643: real time    1.5697
    SETDIJ:  cpu time    1.3086: real time    1.3115
    EDDIAG:  cpu time    4.4677: real time    4.4854
  RMM-DIIS:  cpu time   12.3048: real time   12.3524
    ORTHCH:  cpu time    0.4130: real time    0.4151
       DOS:  cpu time    0.0050: real time    0.0050
    CHARGE:  cpu time    1.5890: real time    1.5946
    MIXING:  cpu time    0.0022: real time    0.0022
    --------------------------------------------
      LOOP:  cpu time   21.6546: real time   21.7360

 eigenvalue-minimisations  :  9705
 total energy-change (2. order) :-0.7378232E-01  (-0.2284879E-01)
 number of electron     367.9996285 magnetization      28.5614997
 augmentation part      223.4987308 magnetization      26.0691033

 Broyden mixing:
  rms(total) = 0.96654E+00    rms(broyden)= 0.96647E+00
  rms(prec ) = 0.11957E+01
  weight for this iteration     100.00

 eigenvalues of (default mixing * dielectric matrix)
  average eigenvalue GAMMA=   0.5639
  1.5212  1.2797  1.2797  0.6953  0.5656  0.3673  0.1421  0.0385  0.1209  0.0964
  0.0964

 Free energy of the ion-electron system (eV)
  ---------------------------------------------------
  alpha Z        PSCENC =       630.21365347
  Ewald energy   TEWEN  =    139348.96655322
  -Hartree energ DENC   =   -177183.64272177
[...]
 pseudopotential strength for first ion, spin component:           2
 -6.383  -0.000  -0.000  -0.023  -0.000  -6.820  -0.000  -0.000
 -0.000  -6.338  -0.000  -0.000  -0.023  -0.000  -6.776  -0.000
 -0.000  -0.000  -6.239  -0.000   0.000  -0.000  -0.000  -6.682
 -0.023  -0.000  -0.000  -6.338  -0.000  -0.022  -0.000  -0.000
 -0.000  -0.023   0.000  -0.000  -6.383  -0.000  -0.022   0.000
 -6.820  -0.000  -0.000  -0.022  -0.000  -7.195  -0.000  -0.000
 -0.000  -6.776  -0.000  -0.000  -0.022  -0.000  -7.153  -0.000
 -0.000  -0.000  -6.682  -0.000   0.000  -0.000  -0.000  -7.064
 -0.022  -0.000  -0.000  -6.776  -0.000  -0.021  -0.000  -0.000
 -0.000  -0.022   0.000  -0.000  -6.820  -0.000  -0.021   0.000
 -0.000  -0.000  -0.012   0.000  -0.000  -0.000  -0.000  -0.012
 -0.000  -0.000  -0.020   0.000  -0.000  -0.000  -0.000  -0.020
 -0.000  -0.004   0.000  -0.000  -0.000  -0.000  -0.003   0.000
 -0.000   0.000  -0.007  -0.000  -0.000  -0.000   0.000  -0.006
 -0.000  -0.000  -0.000  -0.004   0.000  -0.000  -0.000  -0.000
 -0.000  -0.004   0.000  -0.000  -0.000  -0.000  -0.003   0.000
 -0.000   0.000  -0.008  -0.000  -0.000  -0.000   0.000  -0.007
 -0.000  -0.000   0.000  -0.004   0.000  -0.000  -0.000  -0.000
 total augmentation occupancy for first ion, spin component:           1
  2.503  -0.000  -0.000   0.186  -0.000  -0.921   0.000   0.000  -0.072   0.000   0.000  -0.000   0.000  -0.000   0.020   0.000
 -0.000   2.868   0.000  -0.000   0.186   0.000  -0.946  -0.000   0.000  -0.076  -0.000   0.000  -0.172  -0.000   0.000   0.011
 -0.000   0.000   2.692   0.000   0.000   0.000  -0.000  -0.999   0.000  -0.000   0.350  -0.002  -0.000  -0.126   0.000  -0.000
  0.186  -0.000   0.000   2.868  -0.000  -0.076   0.000   0.000  -0.946   0.000   0.000  -0.000  -0.000   0.000  -0.172   0.000
 -0.000   0.186   0.000  -0.000   2.503   0.000  -0.072  -0.000   0.000  -0.921  -0.000   0.000   0.020   0.000  -0.000  -0.002
 -0.921   0.000   0.000  -0.076   0.000   1.061  -0.000  -0.000  -0.002  -0.000   0.000  -0.000  -0.000   0.000  -0.027  -0.000
  0.000  -0.946  -0.000   0.000  -0.072  -0.000   0.847   0.000  -0.000  -0.002   0.000  -0.000   0.172   0.000   0.000  -0.020
  0.000  -0.000  -0.999   0.000  -0.000  -0.000   0.000   1.031  -0.000   0.000  -0.376   0.023   0.000   0.204  -0.000  -0.000
 -0.072   0.000   0.000  -0.946   0.000  -0.002  -0.000  -0.000   0.847  -0.000   0.000   0.000   0.000  -0.000   0.172  -0.000
  0.000  -0.076  -0.000   0.000  -0.921  -0.000  -0.002   0.000  -0.000   1.061  -0.000   0.000  -0.027  -0.000   0.000   0.002
  0.000  -0.000   0.350   0.000  -0.000   0.000   0.000  -0.376   0.000  -0.000   1.901  -0.190  -0.000   0.181  -0.000   0.000
 -0.000   0.000  -0.002  -0.000   0.000  -0.000  -0.000   0.023   0.000   0.000  -0.190   0.028  -0.000  -0.033   0.000   0.000
  0.000  -0.172  -0.000  -0.000   0.020  -0.000   0.172   0.000   0.000  -0.027  -0.000  -0.000   0.238   0.000   0.000  -0.021
 -0.000  -0.000  -0.126   0.000   0.000   0.000   0.000   0.204  -0.000  -0.000   0.181  -0.033   0.000   0.148   0.000  -0.000
  0.020   0.000   0.000  -0.172  -0.000  -0.027   0.000  -0.000   0.172   0.000  -0.000   0.000   0.000   0.000   0.238  -0.000
  0.000   0.011  -0.000   0.000  -0.002  -0.000  -0.020  -0.000  -0.000   0.002   0.000   0.000  -0.021  -0.000  -0.000   0.002
  0.000   0.000   0.002   0.000  -0.000  -0.000  -0.000  -0.016   0.000   0.000  -0.031   0.005  -0.000  -0.015  -0.000   0.000
 -0.002   0.000  -0.000   0.011   0.000   0.002  -0.000   0.000  -0.020  -0.000   0.000  -0.000  -0.000  -0.000  -0.021   0.000
 total augmentation occupancy for first ion, spin component:           2
  0.834   0.000  -0.000  -0.118  -0.000  -0.393  -0.000   0.000   0.050   0.000   0.000  -0.000   0.000   0.000  -0.002   0.000
  0.000   0.572  -0.000  -0.000  -0.118  -0.000  -0.264   0.000   0.000   0.054   0.000  -0.000   0.004   0.000  -0.000  -0.002
 -0.000  -0.000   0.858  -0.000   0.000   0.000   0.000  -0.376   0.000  -0.000   0.013   0.014   0.000  -0.025  -0.000  -0.000
 -0.118  -0.000  -0.000   0.572   0.000   0.054   0.000   0.000  -0.265  -0.000  -0.000   0.000  -0.000   0.000   0.004   0.000
 -0.000  -0.118   0.000   0.000   0.834   0.000   0.050  -0.000  -0.000  -0.393  -0.000   0.000  -0.002  -0.000   0.000   0.000
 -0.393  -0.000   0.000   0.054   0.000   0.105   0.000  -0.000  -0.014  -0.000  -0.000   0.000  -0.000  -0.000   0.003  -0.000
 -0.000  -0.264   0.000   0.000   0.050   0.000   0.063  -0.000  -0.000  -0.014  -0.000   0.000  -0.004  -0.000   0.000   0.002
  0.000   0.000  -0.376   0.000  -0.000  -0.000  -0.000   0.087  -0.000   0.000   0.004  -0.009  -0.000  -0.001   0.000   0.000
  0.050   0.000   0.000  -0.265  -0.000  -0.014  -0.000  -0.000   0.063   0.000   0.000  -0.000   0.000  -0.000  -0.004   0.000
  0.000   0.054  -0.000  -0.000  -0.393  -0.000  -0.014   0.000   0.000   0.105   0.000  -0.000   0.003   0.000  -0.000  -0.000
  0.000   0.000   0.013  -0.000  -0.000  -0.000  -0.000   0.004   0.000   0.000  -0.127   0.038   0.000  -0.011  -0.000  -0.000
 -0.000  -0.000   0.014   0.000   0.000   0.000   0.000  -0.009  -0.000  -0.000   0.038  -0.006  -0.000   0.003   0.000   0.000
  0.000   0.004   0.000  -0.000  -0.002  -0.000  -0.004  -0.000   0.000   0.003   0.000  -0.000  -0.016  -0.000  -0.000   0.002
  0.000   0.000  -0.025   0.000  -0.000  -0.000  -0.000  -0.001  -0.000   0.000  -0.011   0.003  -0.000  -0.009  -0.000   0.000
 -0.002  -0.000  -0.000   0.004   0.000   0.003   0.000   0.000  -0.004  -0.000  -0.000   0.000  -0.000  -0.000  -0.016   0.000
  0.000  -0.002  -0.000   0.000   0.000  -0.000   0.002   0.000   0.000  -0.000  -0.000   0.000   0.002   0.000   0.000  -0.000
  0.000  -0.000  -0.003  -0.000  -0.000  -0.000  -0.000   0.002   0.000   0.000   0.002  -0.001   0.000   0.001   0.000  -0.000
  0.000   0.000  -0.000  -0.002  -0.000  -0.000   0.000   0.000   0.002   0.000   0.000  -0.000   0.000   0.000   0.002  -0.000


------------------------ aborting loop because EDIFF is reached ----------------------------------------


    CHARGE:  cpu time    3.4431: real time    3.4523
    FORLOC:  cpu time    0.0081: real time    0.0081
    FORNL :  cpu time   14.7767: real time   14.8149
    STRESS:  cpu time   40.3740: real time   40.4815
    FORCOR:  cpu time    1.5790: real time    1.5836
    FORHAR:  cpu time    0.0148: real time    0.0149
    MIXING:  cpu time    0.0092: real time    0.0093
    OFIELD:  cpu time    0.0000: real time    0.0000

  FORCE on cell =-STRESS in cart. coord.  units (eV):
  Direction    XX          YY          ZZ          XY          YZ          ZX
  --------------------------------------------------------------------------------------
  Alpha Z   630.21365   630.21365   630.21365
  Ewald  161456.74768161456.76470************     0.01471     0.00953    -0.01381
  Hartree171419.44941171419.45797************     0.00715     0.00561    -0.00629
  E(xc)   -2044.23804 -2044.23985 -2046.82339    -0.00156     0.00003    -0.00005
  Local  ************************341626.39995    -0.03052    -0.01475     0.01921
  n-local  -334.86392  -334.86103  -353.06892     0.00239     0.00057    -0.00132
  augment  6365.34509  6365.36204  6410.06418     0.01462    -0.00040     0.00086
  Kinetic  2883.02228  2883.02246  2922.58581     0.00012    -0.00044     0.00082
  Fock        0.00000     0.00000     0.00000     0.00000     0.00000     0.00000
  -------------------------------------------------------------------------------------
  Total     -13.35045   -13.34237    -2.17531     0.00691     0.00015    -0.00058
  in kB     -19.62793   -19.61604    -3.19815     0.01015     0.00022    -0.00085
  external pressure =      -14.15 kB  Pullay stress =        0.00 kB


 VOLUME and BASIS-vectors are now :
 -----------------------------------------------------------------------------
  energy-cutoff  :      350.00
  volume of cell :     1089.76
      direct lattice vectors                 reciprocal lattice vectors
     7.543189327  0.000000000  0.000000000     0.132569919  0.076539279  0.000000000
    -3.771594664  6.532593583  0.000000000     0.000000000  0.153078557  0.000000000
     0.000000000  0.000000000 22.115230000     0.000000000  0.000000000  0.045217707

  length of vectors
     7.543189327  7.543189327 22.115230000     0.153078557  0.153078557  0.045217707


 FORCES acting on ions
    electron-ion (+dipol)            ewald-force                    non-local-force                 convergence-correction
 -----------------------------------------------------------------------------------------------
   0.893E-01 0.171E+00 0.308E+04   -.916E-01 -.166E+00 -.308E+04   0.117E-03 0.235E-03 -.112E+01   0.218E-02 -.435E-02 0.463E-03
   0.203E+00 0.653E-02 0.308E+04   -.190E+00 0.560E-02 -.308E+04   0.280E-03 0.495E-04 -.112E+01   -.131E-01 -.121E-01 0.165E-02
   0.201E-02 -.742E-02 0.308E+04   -.150E-02 -.243E-02 -.308E+04   -.393E-04 -.538E-04 -.112E+01   -.513E-03 0.987E-02 -.564E-02
   -.886E-01 0.169E+00 0.308E+04   0.898E-01 -.166E+00 -.308E+04   -.111E-03 0.256E-03 -.112E+01   -.114E-02 -.329E-02 -.300E-02
   -.116E-02 0.197E-01 0.308E+04   -.304E-03 0.170E-02 -.307E+04   -.127E-04 0.137E-03 -.112E+01   0.143E-02 -.214E-01 -.128E-02
   0.112E+00 -.176E+00 0.308E+04   -.985E-01 0.159E+00 -.308E+04   0.204E-03 -.286E-03 -.112E+01   -.139E-01 0.168E-01 -.383E-02
   -.803E-03 -.123E-01 0.308E+04   0.185E-02 0.812E-03 -.308E+04   -.446E-04 -.187E-04 -.112E+01   -.103E-02 0.115E-01 0.839E-03
   -.202E+00 0.485E-02 0.308E+04   0.190E+00 0.755E-02 -.308E+04   -.325E-03 0.717E-04 -.112E+01   0.117E-01 -.124E-01 -.979E-03
   -.114E+00 -.175E+00 0.308E+04   0.100E+00 0.160E+00 -.308E+04   -.184E-03 -.331E-03 -.112E+01   0.144E-01 0.154E-01 -.413E-02
   -.150E-01 0.251E-02 0.103E+04   0.959E-02 0.983E-02 -.103E+04   -.121E-03 -.110E-03 -.238E+00   0.522E-02 -.121E-01 -.116E-01
   -.562E-02 -.914E-02 0.103E+04   0.746E-02 0.794E-02 -.103E+04   0.345E-07 0.218E-04 -.238E+00   -.189E-02 0.899E-03 0.574E-02
   -.766E-02 -.760E-02 0.103E+04   0.599E-02 -.667E-02 -.103E+04   -.149E-03 0.159E-04 -.238E+00   0.176E-02 0.142E-01 -.947E-02
   -.107E-01 -.100E-03 0.103E+04   0.809E-02 0.105E-01 -.103E+04   -.762E-04 -.570E-04 -.238E+00   0.275E-02 -.103E-01 -.159E-01
   -.119E-01 -.371E-02 0.103E+04   0.457E-02 0.552E-02 -.103E+04   -.250E-03 0.458E-04 -.238E+00   0.731E-02 -.189E-02 -.161E-01
   0.770E-03 -.676E-02 0.103E+04   0.318E-02 -.899E-02 -.103E+04   0.100E-04 -.999E-04 -.238E+00   -.388E-02 0.158E-01 -.150E-01
   0.242E-01 0.491E-02 0.103E+04   -.161E-01 0.401E-02 -.103E+04   0.118E-03 0.476E-05 -.238E+00   -.797E-02 -.875E-02 -.979E-02
   0.158E-01 0.926E-02 0.103E+04   -.103E-01 -.617E-02 -.103E+04   0.156E-03 0.787E-04 -.238E+00   -.543E-02 -.330E-02 -.880E-02
   0.538E-02 0.137E-01 0.103E+04   -.760E-02 -.192E-01 -.103E+04   0.673E-04 0.242E-03 -.238E+00   0.213E-02 0.554E-02 -.252E-01
   -.615E-02 -.113E-01 -.103E+04   -.174E-02 0.565E-02 0.103E+04   0.498E-04 -.912E-04 0.232E+00   0.787E-02 0.607E-02 -.302E-01
   0.137E-01 -.305E-01 -.103E+04   -.150E-01 0.229E-01 0.103E+04   -.159E-05 0.940E-05 0.231E+00   0.131E-02 0.766E-02 -.170E-01
   -.923E-02 0.395E-01 -.103E+04   -.737E-02 -.410E-01 0.103E+04   -.350E-04 -.734E-04 0.230E+00   0.166E-01 0.116E-02 -.150E-01
   -.391E-01 -.109E-01 -.103E+04   0.377E-01 0.204E-01 0.103E+04   0.136E-03 0.276E-04 0.230E+00   0.162E-02 -.911E-02 -.259E-01
   -.200E-01 -.420E-01 -.103E+04   0.284E-01 0.430E-01 0.103E+04   0.190E-03 0.154E-03 0.231E+00   -.833E-02 -.821E-03 -.187E-01
   -.143E-01 0.961E-02 -.103E+04   0.254E-01 -.964E-02 0.103E+04   0.241E-03 -.449E-04 0.230E+00   -.110E-01 -.224E-03 -.157E-01
   0.461E-01 -.584E-02 -.103E+04   -.368E-01 0.247E-02 0.103E+04   0.459E-04 -.124E-03 0.231E+00   -.950E-02 0.361E-02 -.373E-01
   0.765E-02 -.595E-02 -.103E+04   -.148E-01 0.126E-01 0.103E+04   0.271E-04 -.191E-04 0.231E+00   0.703E-02 -.663E-02 -.251E-01
   0.238E-01 0.551E-01 -.103E+04   -.184E-01 -.538E-01 0.103E+04   -.373E-04 -.803E-04 0.231E+00   -.564E-02 -.169E-02 -.281E-01
   0.171E+00 0.292E+00 -.308E+04   -.173E+00 -.292E+00 0.308E+04   -.423E-03 -.670E-03 0.111E+01   0.201E-02 0.145E-03 -.145E-01
   0.304E+00 -.721E-01 -.308E+04   -.307E+00 0.578E-01 0.308E+04   -.545E-03 0.106E-03 0.111E+01   0.357E-02 0.145E-01 -.169E-01
   0.512E-01 0.819E-01 -.308E+04   -.666E-01 -.795E-01 0.308E+04   -.509E-03 -.306E-03 0.111E+01   0.154E-01 -.258E-02 -.115E-01
   -.179E+00 0.238E+00 -.308E+04   0.165E+00 -.229E+00 0.308E+04   0.353E-03 -.265E-03 0.111E+01   0.136E-01 -.854E-02 -.163E-01
   -.618E-01 -.140E+00 -.308E+04   0.610E-01 0.126E+00 0.308E+04   0.362E-03 0.617E-03 0.111E+01   0.850E-03 0.147E-01 -.171E-01
   0.724E-01 -.193E+00 -.308E+04   -.741E-01 0.189E+00 0.308E+04   0.276E-03 0.164E-03 0.111E+01   0.176E-02 0.316E-02 -.198E-01
   0.782E-02 0.426E-01 -.308E+04   0.774E-02 -.309E-01 0.308E+04   0.120E-03 -.188E-03 0.111E+01   -.156E-01 -.118E-01 -.210E-01
   -.241E+00 -.105E+00 -.308E+04   0.246E+00 0.108E+00 0.308E+04   0.203E-03 0.520E-03 0.111E+01   -.440E-02 -.306E-02 -.157E-01
   -.122E+00 -.145E+00 -.308E+04   0.139E+00 0.151E+00 0.308E+04   0.235E-03 -.157E-04 0.111E+01   -.171E-01 -.669E-02 -.149E-01
   -.160E-04 -.487E+02 0.346E+01   0.119E-04 0.540E+02 -.160E+01   -.551E-04 -.528E+01 -.187E+01   -.646E-06 0.404E-03 0.852E-03
   -.422E+02 0.243E+02 0.346E+01   0.467E+02 -.270E+02 -.160E+01   -.457E+01 0.264E+01 -.187E+01   0.352E-03 -.205E-03 0.860E-03
   0.422E+02 0.243E+02 0.346E+01   -.467E+02 -.270E+02 -.160E+01   0.457E+01 0.264E+01 -.187E+01   -.350E-03 -.205E-03 0.860E-03
   -.342E-04 -.767E-04 -.106E+02   0.390E-04 0.691E-04 0.497E+01   0.335E-05 -.275E-05 0.560E+01   0.112E-05 0.593E-05 0.603E-03
   0.168E-03 -.223E-03 -.437E-01   0.543E-04 0.966E-04 0.360E-01   0.152E-03 -.181E-04 -.766E-03   0.156E-05 -.278E-05 0.306E-02
 -----------------------------------------------------------------------------------------------
   0.919E-04 -.674E-04 0.506E+00   -.185E-12 -.537E-13 0.112E-10   0.422E-03 -.179E-03 -.191E+00   0.114E-04 0.186E-04 -.476E+00
 
 
 POSITION                                       TOTAL-FORCE (eV/Angst)
 -----------------------------------------------------------------------------------
      0.00000      0.00000      0.00000        -0.000018      0.000113      0.002669
     -1.25720      2.17753      0.00000         0.000125      0.000046      0.002646
     -2.51440      4.35506      0.00000        -0.000061     -0.000026      0.003088
      2.51440      0.00000      0.00000        -0.000044      0.000108      0.002819
      1.25720      2.17753      0.00000        -0.000067      0.000156      0.003309
     -0.00000      4.35506      0.00000         0.000119     -0.000127      0.002410
      5.02879      0.00000      0.00000        -0.000040     -0.000034      0.002963
      3.77159      2.17753      0.00000        -0.000173      0.000075      0.002657
      2.51440      4.35506      0.00000        -0.000152     -0.000128      0.002543
      2.51440      1.45169      2.03320        -0.000360      0.000119     -0.003002
      1.25720      3.62922      2.03320        -0.000054     -0.000274     -0.002997
     -0.00000      5.80675      2.03320        -0.000068     -0.000086     -0.003347
      5.02879      1.45169      2.03320         0.000078      0.000022     -0.002960
      3.77159      3.62922      2.03320        -0.000303     -0.000028     -0.002758
      2.51440      5.80675      2.03320         0.000065     -0.000062     -0.003102
      0.00000      1.45169      2.03320         0.000234      0.000181     -0.002905
     -1.25720      3.62922      2.03320         0.000293     -0.000124     -0.002840
     -2.51440      5.80675      2.03320        -0.000039      0.000302     -0.003033
      1.25722      0.72583      4.08355         0.000018      0.000293      0.000452
      0.00008      2.90333      4.08357        -0.000018      0.000064      0.000090
     -1.25715      5.08095      4.08338        -0.000049     -0.000435     -0.000183
      3.77157      0.72577      4.08335         0.000303      0.000382     -0.000283
      2.51435      2.90327      4.08354         0.000199      0.000395     -0.000231
      1.25716      5.08091      4.08336         0.000413     -0.000291     -0.000684
      6.28608      0.72580      4.08342        -0.000186      0.000119      0.000262
      5.02885      2.90335      4.08340        -0.000075     -0.000025     -0.000182
      3.77167      5.08099      4.08341        -0.000285     -0.000535     -0.000106
      0.00009      0.00006      6.11580        -0.000333     -0.000573     -0.001866
     -1.25710      2.17745      6.11556        -0.000420      0.000351     -0.001052
     -2.51429      4.35510      6.11539        -0.000526     -0.000472     -0.000330
      2.51440      0.00002      6.11576         0.000290     -0.000186     -0.002142
      1.25718      2.17739      6.11611         0.000434      0.000880     -0.002982
     -0.00000      4.35506      6.11561         0.000373     -0.000139     -0.001565
      5.02882      0.00001      6.11546         0.000053     -0.000222     -0.000626
      3.77164      2.17740      6.11539        -0.000030      0.000745     -0.000460
      2.51442      4.35509      6.11523         0.000107     -0.000418     -0.000034
      1.25718      3.21144     14.48082        -0.000073      0.001169      0.004325
      2.15270      1.66036     14.48082         0.000968     -0.000613      0.004250
      0.36166      1.66036     14.48082        -0.001057     -0.000582      0.004310
      1.25718      2.17739     13.01845        -0.000004      0.000001      0.002379
      1.25718      2.17739     14.11523         0.000363     -0.000142     -0.001501
 -----------------------------------------------------------------------------------
    total drift:                                0.000525     -0.000228     -0.160894


--------------------------------------------------------------------------------------------------------



  FREE ENERGIE OF THE ION-ELECTRON SYSTEM (eV)
  ---------------------------------------------------
  free  energy   TOTEN  =       -90.62956377 eV

  energy  without entropy=      -88.41850014  energy(sigma->0) =      -89.52403196
 


--------------------------------------------------------------------------------------------------------


    POTLOK:  cpu time    2.8678: real time    2.8752


--------------------------------------------------------------------------------------------------------


 Quasi-Newton relaxation of ions (Broydens 2nd method)
  g(Force)  = 0.455E-05   g(Stress)= 0.000E+00

 Reset! Starting new Quasi-Newton update for ions 


--------------------------------------------------------------------------------------------------------


  
 reached required accuracy - stopping structural energy minimisation
     LOOP+:  cpu time 1249.5646: real time 1256.5572
    4ORBIT:  cpu time    0.0000: real time    0.0000

 total amount of memory used by VASP MPI-rank0    80672. kBytes
=======================================================================

   base      :      30000. kBytes
   nonlr-proj:       1930. kBytes
   fftplans  :       1735. kBytes
   grid      :       4761. kBytes
   one-center:         62. kBytes
   wavefun   :      42184. kBytes
 
  
  
 General timing and accounting informations for this job:
 ========================================================
  
                  Total CPU time used (sec):     1259.816
                            User time (sec):     1258.095
                          System time (sec):        1.720
                         Elapsed time (sec):     1270.217
  
                   Maximum memory used (kb):      405168.
                   Average memory used (kb):           0.
  
                          Minor page faults:       228596
                          Major page faults:          203
                 Voluntary context switches:         3948
