<?xml version="1.0" encoding="ISO-8859-1"?>
<modeling>
 <generator>
  <i name="program" type="string">vasp </i>
  <i name="version" type="string">5.4.4.18Apr17-6-g9f103f2a35  </i>
  <i name="subversion" type="string">(build Sep 12 2022 16:13:44) complex            parallel </i>
  <i name="platform" type="string">LinuxIFC </i>
  <i name="date" type="string">2022 09 19 </i>
  <i name="time" type="string">23:50:40 </i>
 </generator>
 <incar>
  <i type="string" name="SYSTEM"> Ni(111) + CH4, PAW 3x3 s.u.c. 4L - Step</i>
  <i type="int" name="ISTART">     0</i>
  <i type="string" name="PREC">normal</i>
  <i type="string" name="ALGO"> F</i>
  <i type="int" name="NSIM">     4</i>
  <i type="int" name="ISPIN">     2</i>
  <i type="int" name="ICHARG">     2</i>
  <i type="int" name="NELMDL">   -12</i>
  <i type="int" name="IBRION">     1</i>
  <i name="EDIFFG">     -0.01000000</i>
  <i type="int" name="NSW">   500</i>
  <i type="int" name="ISYM">     0</i>
  <i name="ENCUT">    350.00000000</i>
  <i type="string" name="LREAL"> Auto</i>
  <i type="logical" name="LPLANE"> T  </i>
  <i type="int" name="ISMEAR">    -1</i>
  <i name="SIGMA">      0.10000000</i>
  <i type="logical" name="LWAVE"> F  </i>
  <i type="logical" name="LSCALU"> F  </i>
  <i type="logical" name="LASPH"> T  </i>
  <v type="int" name="KPOINT_BSE">    -1     0     0     0</v>
  <i type="string" name="GGA"> SR</i>
  <i name="PARAM1">      0.32000000</i>
  <i type="logical" name="LUSE_VDW"> T  </i>
  <i name="AGGAC">      0.00000000</i>
  <i type="logical" name="LASPH"> T  </i>
 </incar>
 <structure name="primitive_cell" >
  <crystal>
   <varray name="basis" >
    <v>       7.54318933       0.00000000       0.00000000 </v>
    <v>      -3.77159466       6.53259358       0.00000000 </v>
    <v>       0.00000000       0.00000000      22.11523000 </v>
   </varray>
   <i name="volume">   1089.76312573 </i>
   <varray name="rec_basis" >
    <v>       0.13256992       0.07653928       0.00000000 </v>
    <v>       0.00000000       0.15307856       0.00000000 </v>
    <v>       0.00000000       0.00000000       0.04521771 </v>
   </varray>
  </crystal>
  <varray name="positions" >
   <v>       0.00000000       0.00000000       0.00000000 </v>
   <v>       0.11111111      -0.11111111       0.09193664 </v>
   <v>       0.11111111       0.22222222       0.09193664 </v>
   <v>      -0.22222222      -0.11111111       0.09193664 </v>
   <v>       0.33333333       0.00000000       0.00000000 </v>
   <v>      -0.33333333       0.00000000       0.00000000 </v>
   <v>       0.33333333       0.33333333       0.00000000 </v>
   <v>       0.00000000       0.33333333       0.00000000 </v>
   <v>       0.00000000      -0.33333333       0.00000000 </v>
   <v>      -0.33333333      -0.33333333       0.00000000 </v>
   <v>       0.44444444       0.22222222       0.09193664 </v>
   <v>      -0.22222222       0.22222222       0.09193664 </v>
   <v>      -0.22222222      -0.44444444       0.09193664 </v>
   <v>      -0.11109470      -0.22220938       0.18464244 </v>
   <v>      -0.11110267       0.11110442       0.18464289 </v>
   <v>       0.22222406       0.11110901       0.18464877 </v>
   <v>       0.44444444      -0.11111111       0.09193664 </v>
   <v>       0.11111111      -0.44444444       0.09193664 </v>
   <v>       0.44444444      -0.44444444       0.09193664 </v>
   <v>       0.33333333      -0.33333333       0.00000000 </v>
   <v>      -0.33333333       0.33333333       0.00000000 </v>
   <v>      -0.44444921      -0.22222163       0.18464018 </v>
   <v>       0.22223197      -0.22221551       0.18464108 </v>
   <v>       0.22222939       0.44443757       0.18464967 </v>
   <v>      -0.44445336       0.11109982       0.18463973 </v>
   <v>      -0.11110545       0.44444063       0.18464199 </v>
   <v>      -0.44445863       0.44442838       0.18464832 </v>
   <v>       0.00001563       0.00000864       0.27654246 </v>
   <v>      -0.33332810      -0.33332911       0.27651668 </v>
   <v>       0.00001708      -0.33332758       0.27652392 </v>
   <v>      -0.33332863       0.00000098       0.27652708 </v>
   <v>       0.00000690       0.33332090       0.27653160 </v>
   <v>       0.33333534       0.00000306       0.27654065 </v>
   <v>       0.33332011       0.33331172       0.27655647 </v>
   <v>      -0.33333736       0.33331325       0.27652392 </v>
   <v>       0.33333315      -0.33333370       0.27653386 </v>
   <v>       0.17502860       0.25416596      -0.34521037 </v>
   <v>       0.41246587       0.25416596      -0.34521037 </v>
   <v>       0.41246587       0.49160323      -0.34521037 </v>
   <v>       0.33332011       0.33331172      -0.36174166 </v>
   <v>       0.33332011       0.33331172      -0.41133554 </v>
  </varray>
 </structure>
 <varray name="primitive_index" >
  <v type="int" >        1 </v>
  <v type="int" >       18 </v>
  <v type="int" >       16 </v>
  <v type="int" >       15 </v>
  <v type="int" >        4 </v>
  <v type="int" >        7 </v>
  <v type="int" >        5 </v>
  <v type="int" >        2 </v>
  <v type="int" >        3 </v>
  <v type="int" >        9 </v>
  <v type="int" >       10 </v>
  <v type="int" >       13 </v>
  <v type="int" >       14 </v>
  <v type="int" >       27 </v>
  <v type="int" >       25 </v>
  <v type="int" >       19 </v>
  <v type="int" >       12 </v>
  <v type="int" >       17 </v>
  <v type="int" >       11 </v>
  <v type="int" >        6 </v>
  <v type="int" >        8 </v>
  <v type="int" >       24 </v>
  <v type="int" >       21 </v>
  <v type="int" >       20 </v>
  <v type="int" >       22 </v>
  <v type="int" >       26 </v>
  <v type="int" >       23 </v>
  <v type="int" >       28 </v>
  <v type="int" >       36 </v>
  <v type="int" >       30 </v>
  <v type="int" >       34 </v>
  <v type="int" >       29 </v>
  <v type="int" >       31 </v>
  <v type="int" >       32 </v>
  <v type="int" >       35 </v>
  <v type="int" >       33 </v>
  <v type="int" >       39 </v>
  <v type="int" >       38 </v>
  <v type="int" >       37 </v>
  <v type="int" >       41 </v>
  <v type="int" >       40 </v>
 </varray>
 <kpoints>
  <generation param="Gamma">
   <v type="int" name="divisions">       4        4        1 </v>
   <v name="usershift">      0.00000000       0.00000000       0.00000000 </v>
   <v name="genvec1">      0.25000000       0.00000000       0.00000000 </v>
   <v name="genvec2">      0.00000000       0.25000000       0.00000000 </v>
   <v name="genvec3">      0.00000000       0.00000000       1.00000000 </v>
   <v name="shift">      0.00000000       0.00000000       0.00000000 </v>
  </generation>
  <varray name="kpointlist" >
   <v>       0.00000000       0.00000000       0.00000000 </v>
   <v>       0.25000000      -0.00000000       0.00000000 </v>
   <v>       0.50000000      -0.00000000       0.00000000 </v>
   <v>       0.00000000       0.25000000       0.00000000 </v>
   <v>       0.25000000       0.25000000       0.00000000 </v>
   <v>       0.50000000       0.25000000       0.00000000 </v>
   <v>      -0.25000000       0.25000000       0.00000000 </v>
   <v>       0.00000000       0.50000000       0.00000000 </v>
   <v>       0.25000000       0.50000000       0.00000000 </v>
   <v>       0.50000000       0.50000000       0.00000000 </v>
  </varray>
  <varray name="weights" >
   <v>       0.06250000 </v>
   <v>       0.12500000 </v>
   <v>       0.06250000 </v>
   <v>       0.12500000 </v>
   <v>       0.12500000 </v>
   <v>       0.12500000 </v>
   <v>       0.12500000 </v>
   <v>       0.06250000 </v>
   <v>       0.12500000 </v>
   <v>       0.06250000 </v>
  </varray>
 </kpoints>
 <parameters>
  <separator name="general" >
   <i type="string" name="SYSTEM">Ni(111) + CH4, PAW 3x3 s.u.c. 4L - Step</i>
   <i type="logical" name="LCOMPAT"> F  </i>
  </separator>
  <separator name="electronic" >
   <i type="string" name="PREC">normal</i>
   <i name="ENMAX">    350.00000000</i>
   <i name="ENAUG">    644.87300000</i>
   <i name="EDIFF">      0.00010000</i>
   <i type="int" name="IALGO">    68</i>
   <i type="int" name="IWAVPR">    11</i>
   <i type="int" name="NBANDS">   241</i>
   <i name="NELECT">    368.00000000</i>
   <i type="int" name="TURBO">     0</i>
   <i type="int" name="IRESTART">     0</i>
   <i type="int" name="NREBOOT">     0</i>
   <i type="int" name="NMIN">     0</i>
   <i name="EREF">      0.00000000</i>
   <separator name="electronic smearing" >
    <i type="int" name="ISMEAR">    -1</i>
    <i name="SIGMA">      0.10000000</i>
    <i name="KSPACING">      0.50000000</i>
    <i type="logical" name="KGAMMA"> T  </i>
   </separator>
   <separator name="electronic projectors" >
    <i type="logical" name="LREAL"> T  </i>
    <v name="ROPT">     -0.00050000     -0.00050000     -0.00050000</v>
    <i type="int" name="LMAXPAW">  -100</i>
    <i type="int" name="LMAXMIX">     2</i>
    <i type="logical" name="NLSPLINE"> F  </i>
   </separator>
   <separator name="electronic startup" >
    <i type="int" name="ISTART">     0</i>
    <i type="int" name="ICHARG">     2</i>
    <i type="int" name="INIWAV">     1</i>
   </separator>
   <separator name="electronic spin" >
    <i type="int" name="ISPIN">     2</i>
    <i type="logical" name="LNONCOLLINEAR"> F  </i>
    <v name="MAGMOM">      1.00000000      1.00000000      1.00000000      1.00000000      1.00000000      1.00000000      1.00000000      1.00000000      1.00000000      1.00000000      1.00000000      1.00000000      1.00000000      1.00000000      1.00000000      1.00000000      1.00000000      1.00000000      1.00000000      1.00000000
      1.00000000      1.00000000      1.00000000      1.00000000      1.00000000      1.00000000      1.00000000      1.00000000      1.00000000      1.00000000      1.00000000      1.00000000      1.00000000      1.00000000      1.00000000      1.00000000      1.00000000      1.00000000      1.00000000      1.00000000
      1.00000000</v>
    <i name="NUPDOWN">     -1.00000000</i>
    <i type="logical" name="LSORBIT"> F  </i>
    <v name="SAXIS">      0.00000000      0.00000000      1.00000000</v>
    <i type="logical" name="LSPIRAL"> F  </i>
    <v name="QSPIRAL">      0.00000000      0.00000000      0.00000000</v>
    <i type="logical" name="LZEROZ"> F  </i>
   </separator>
   <separator name="electronic exchange-correlation" >
    <i type="logical" name="LASPH"> T  </i>
    <i type="logical" name="LMETAGGA"> F  </i>
   </separator>
   <separator name="electronic convergence" >
    <i type="int" name="NELM">    60</i>
    <i type="int" name="NELMDL">   -12</i>
    <i type="int" name="NELMIN">     2</i>
    <i name="ENINI">    350.00000000</i>
    <separator name="electronic convergence detail" >
     <i type="logical" name="LDIAG"> T  </i>
     <i type="logical" name="LSUBROT"> F  </i>
     <i name="WEIMIN">      0.00100000</i>
     <i name="EBREAK">      0.00000010</i>
     <i name="DEPER">      0.30000000</i>
     <i type="int" name="NRMM">     4</i>
     <i name="TIME">      0.40000000</i>
    </separator>
   </separator>
   <separator name="electronic mixer" >
    <i name="AMIX">      0.40000000</i>
    <i name="BMIX">      1.00000000</i>
    <i name="AMIN">      0.10000000</i>
    <i name="AMIX_MAG">      1.60000000</i>
    <i name="BMIX_MAG">      1.00000000</i>
    <separator name="electronic mixer details" >
     <i type="int" name="IMIX">     4</i>
     <i type="logical" name="MIXFIRST"> F  </i>
     <i type="int" name="MAXMIX">   -45</i>
     <i name="WC">    100.00000000</i>
     <i type="int" name="INIMIX">     1</i>
     <i type="int" name="MIXPRE">     1</i>
     <i type="int" name="MREMOVE">     5</i>
    </separator>
   </separator>
   <separator name="electronic dipolcorrection" >
    <i type="logical" name="LDIPOL"> F  </i>
    <i type="logical" name="LMONO"> F  </i>
    <i type="int" name="IDIPOL">     0</i>
    <i name="EPSILON">      1.00000000</i>
    <v name="DIPOL">   -100.00000000   -100.00000000   -100.00000000</v>
    <i name="EFIELD">      0.00000000</i>
   </separator>
  </separator>
  <separator name="grids" >
   <i type="int" name="NGX">    36</i>
   <i type="int" name="NGY">    36</i>
   <i type="int" name="NGZ">   108</i>
   <i type="int" name="NGXF">    72</i>
   <i type="int" name="NGYF">    72</i>
   <i type="int" name="NGZF">   216</i>
   <i type="logical" name="ADDGRID"> F  </i>
  </separator>
  <separator name="ionic" >
   <i type="int" name="NSW">   500</i>
   <i type="int" name="IBRION">     1</i>
   <i type="int" name="MDALGO">     0</i>
   <i type="int" name="ISIF">     2</i>
   <i name="PSTRESS">      0.00000000</i>
   <i name="EDIFFG">     -0.01000000</i>
   <i type="int" name="NFREE">     0</i>
   <i name="POTIM">      0.50000000</i>
   <i name="SMASS">     -3.00000000</i>
   <i name="SCALEE">      1.00000000</i>
  </separator>
  <separator name="ionic md" >
   <i name="TEBEG">      0.00010000</i>
   <i name="TEEND">      0.00010000</i>
   <i type="int" name="NBLOCK">     1</i>
   <i type="int" name="KBLOCK">   500</i>
   <i type="int" name="NPACO">   256</i>
   <i name="APACO">     16.00000000</i>
  </separator>
  <separator name="symmetry" >
   <i type="int" name="ISYM">     0</i>
   <i name="SYMPREC">      0.00001000</i>
  </separator>
  <separator name="dos" >
   <i type="int" name="LORBIT">     0</i>
   <v name="RWIGS">     -1.00000000     -1.00000000     -1.00000000</v>
   <i type="int" name="NEDOS">   301</i>
   <i name="EMIN">     10.00000000</i>
   <i name="EMAX">    -10.00000000</i>
   <i name="EFERMI">      0.00000000</i>
  </separator>
  <separator name="writing" >
   <i type="int" name="NWRITE">     2</i>
   <i type="logical" name="LWAVE"> F  </i>
   <i type="logical" name="LDOWNSAMPLE"> F  </i>
   <i type="logical" name="LCHARG"> T  </i>
   <i type="logical" name="LPARD"> F  </i>
   <i type="logical" name="LVTOT"> F  </i>
   <i type="logical" name="LVHAR"> F  </i>
   <i type="logical" name="LELF"> F  </i>
   <i type="logical" name="LOPTICS"> F  </i>
   <v name="STM">      0.00000000      0.00000000      0.00000000      0.00000000      0.00000000      0.00000000      0.00000000</v>
  </separator>
  <separator name="performance" >
   <i type="int" name="NPAR">     1</i>
   <i type="int" name="NSIM">     4</i>
   <i type="int" name="NBLK">    -1</i>
   <i type="logical" name="LPLANE"> T  </i>
   <i type="logical" name="LSCALAPACK"> T  </i>
   <i type="logical" name="LSCAAWARE"> F  </i>
   <i type="logical" name="LSCALU"> F  </i>
   <i type="logical" name="LASYNC"> F  </i>
   <i type="logical" name="LORBITALREAL"> F  </i>
  </separator>
  <separator name="miscellaneous" >
   <i type="int" name="IDIOT">     3</i>
   <i type="int" name="ISPECIAL">     0</i>
   <i type="logical" name="LMUSIC"> F  </i>
   <v name="POMASS">     58.69000000      1.00000000     12.01100000</v>
   <v name="DARWINR">      0.00000000      0.00000000      0.00000000</v>
   <v name="DARWINV">      1.00000000      1.00000000      1.00000000</v>
   <i type="logical" name="LCORR"> T  </i>
  </separator>
  <i type="logical" name="GGA_COMPAT"> T  </i>
  <i type="logical" name="LBERRY"> F  </i>
  <i type="int" name="ICORELEVEL">     0</i>
  <i type="logical" name="LDAU"> F  </i>
  <i type="int" name="I_CONSTRAINED_M">     0</i>
  <separator name="electronic exchange-correlation" >
   <i type="string" name="GGA">SR</i>
   <i type="int" name="VOSKOWN">     0</i>
   <i type="logical" name="LHFCALC"> F  </i>
   <i type="string" name="PRECFOCK"></i>
   <i type="logical" name="LSYMGRAD"> F  </i>
   <i type="logical" name="LHFONE"> F  </i>
   <i type="logical" name="LRHFCALC"> F  </i>
   <i type="logical" name="LTHOMAS"> F  </i>
   <i type="logical" name="LMODELHF"> F  </i>
   <i name="ENCUT4O">     -1.00000000</i>
   <i type="int" name="EXXOEP">     0</i>
   <i type="int" name="FOURORBIT">     0</i>
   <i name="AEXX">      0.00000000</i>
   <i name="HFALPHA">      0.00000000</i>
   <i name="MCALPHA">      0.00000000</i>
   <i name="ALDAX">      1.00000000</i>
   <i name="AGGAX">      1.00000000</i>
   <i name="ALDAC">      1.00000000</i>
   <i name="AGGAC">      0.00000000</i>
   <i type="int" name="NKREDX">     1</i>
   <i type="int" name="NKREDY">     1</i>
   <i type="int" name="NKREDZ">     1</i>
   <i type="logical" name="SHIFTRED"> F  </i>
   <i type="logical" name="ODDONLY"> F  </i>
   <i type="logical" name="EVENONLY"> F  </i>
   <i type="int" name="LMAXFOCK">     0</i>
   <i type="int" name="NMAXFOCKAE">     0</i>
   <i type="logical" name="LFOCKAEDFT"> F  </i>
   <i name="HFSCREEN">      0.00000000</i>
   <i name="HFSCREENC">      0.00000000</i>
   <i type="int" name="NBANDSGWLOW">     0</i>
  </separator>
  <separator name="vdW DFT" >
   <i type="logical" name="LUSE_VDW"> T  </i>
   <i name="Zab_VDW">     -0.84910000</i>
   <i name="PARAM1">      0.32000000</i>
   <i name="PARAM2">      1.00000000</i>
   <i name="PARAM3">      0.00000000</i>
  </separator>
  <separator name="model GW" >
   <i type="int" name="MODEL_GW">     0</i>
   <i name="MODEL_EPS0">     15.94775306</i>
   <i name="MODEL_ALPHA">      1.00000000</i>
  </separator>
  <separator name="linear response parameters" >
   <i type="logical" name="LEPSILON"> F  </i>
   <i type="logical" name="LRPA"> F  </i>
   <i type="logical" name="LNABLA"> F  </i>
   <i type="logical" name="LVEL"> F  </i>
   <i type="int" name="KINTER">     0</i>
   <i name="CSHIFT">      0.10000000</i>
   <i name="OMEGAMAX">     -1.00000000</i>
   <i name="DEG_THRESHOLD">      0.00200000</i>
   <i name="RTIME">     -0.10000000</i>
   <i name="WPLASMAI">      0.00000000</i>
   <v name="DFIELD">      0.00000000      0.00000000      0.00000000</v>
   <v name="WPLASMA">      0.00000000      0.00000000      0.00000000      0.00000000      0.00000000      0.00000000      0.00000000      0.00000000      0.00000000</v>
  </separator>
  <separator name="orbital magnetization" >
   <i type="logical" name="NUCIND"> F  </i>
   <v name="MAGPOS">      0.00000000      0.00000000      0.00000000</v>
   <i type="logical" name="LNICSALL"> T  </i>
   <i type="logical" name="ORBITALMAG"> F  </i>
   <i type="logical" name="LMAGBLOCH"> F  </i>
   <i type="logical" name="LCHIMAG"> F  </i>
   <i type="logical" name="LGAUGE"> T  </i>
   <i type="int" name="MAGATOM">     0</i>
   <v name="MAGDIPOL">      0.00000000      0.00000000      0.00000000</v>
   <v name="AVECCONST">      0.00000000      0.00000000      0.00000000</v>
  </separator>
  <separator name="response functions" >
   <i type="logical" name="LADDER"> F  </i>
   <i type="logical" name="LRPAFORCE"> F  </i>
   <i type="logical" name="LFXC"> F  </i>
   <i type="logical" name="LHARTREE"> T  </i>
   <i type="int" name="IBSE">     0</i>
   <v type="int" name="KPOINT">    -1     0     0     0</v>
   <i type="logical" name="LTCTE"> F  </i>
   <i type="logical" name="LTETE"> F  </i>
   <i type="logical" name="LTRIPLET"> F  </i>
   <i type="logical" name="LFXCEPS"> F  </i>
   <i type="logical" name="LFXHEG"> F  </i>
   <i type="int" name="NATURALO">     2</i>
   <i type="logical" name="L2ORDER"> F  </i>
   <i type="logical" name="LMP2LT"> F  </i>
   <i type="logical" name="LUSEW"> F  </i>
   <i name="ENCUTGW">     -2.00000000</i>
   <i name="ENCUTGWSOFT">     -2.00000000</i>
   <i name="ENCUTLF">     -1.00000000</i>
   <i type="int" name="LMAXMP2">    -1</i>
   <i name="SCISSOR">      0.00000000</i>
   <i type="int" name="NOMEGA">     0</i>
   <i type="int" name="NOMEGAR">     0</i>
   <i type="int" name="NBANDSGW">    -1</i>
   <i type="int" name="NBANDSO">    -1</i>
   <i type="int" name="NBANDSV">    -1</i>
   <i type="int" name="NELM">     1</i>
   <i type="int" name="NELMHF">     1</i>
   <i type="int" name="DIM">     3</i>
   <i type="int" name="ANTIRES">     0</i>
   <i name="OMEGAMAX">    -30.00000000</i>
   <i name="OMEGAMIN">    -30.00000000</i>
   <i name="OMEGATL">   -200.00000000</i>
   <i type="int" name="OMEGAGRID">   140</i>
   <i name="CSHIFT">     -0.10000000</i>
   <i type="logical" name="SELFENERGY"> F  </i>
   <i type="logical" name="LSPECTRAL"> F  </i>
   <i type="logical" name="LSPECTRALGW"> F  </i>
   <i type="logical" name="LSINGLES"> F  </i>
   <i type="logical" name="LFERMIGW"> F  </i>
   <i type="logical" name="ODDONLYGW"> F  </i>
   <i type="logical" name="EVENONLYGW"> F  </i>
   <i type="int" name="NKREDLFX">     1</i>
   <i type="int" name="NKREDLFY">     1</i>
   <i type="int" name="NKREDLFZ">     1</i>
   <i type="int" name="MAXMEM">  2800</i>
   <i type="int" name="TELESCOPE">     0</i>
   <i type="int" name="TAUPAR">     1</i>
   <i type="int" name="OMEGAPAR">    -1</i>
   <i name="LAMBDA">      1.00000000</i>
  </separator>
  <separator name="External order field" >
   <i name="OFIELD_KAPPA">      0.00000000</i>
   <v name="OFIELD_K">      0.00000000      0.00000000      0.00000000</v>
   <i name="OFIELD_Q6_NEAR">      0.00000000</i>
   <i name="OFIELD_Q6_FAR">      0.00000000</i>
   <i name="OFIELD_A">      0.00000000</i>
  </separator>
 </parameters>
 <atominfo>
  <atoms>      41 </atoms>
  <types>       3 </types>
  <array name="atoms" >
   <dimension dim="1">ion</dimension>
   <field type="string">element</field>
   <field type="int">atomtype</field>
   <set>
    <rc><c>Ni</c><c>   1</c></rc>
    <rc><c>Ni</c><c>   1</c></rc>
    <rc><c>Ni</c><c>   1</c></rc>
    <rc><c>Ni</c><c>   1</c></rc>
    <rc><c>Ni</c><c>   1</c></rc>
    <rc><c>Ni</c><c>   1</c></rc>
    <rc><c>Ni</c><c>   1</c></rc>
    <rc><c>Ni</c><c>   1</c></rc>
    <rc><c>Ni</c><c>   1</c></rc>
    <rc><c>Ni</c><c>   1</c></rc>
    <rc><c>Ni</c><c>   1</c></rc>
    <rc><c>Ni</c><c>   1</c></rc>
    <rc><c>Ni</c><c>   1</c></rc>
    <rc><c>Ni</c><c>   1</c></rc>
    <rc><c>Ni</c><c>   1</c></rc>
    <rc><c>Ni</c><c>   1</c></rc>
    <rc><c>Ni</c><c>   1</c></rc>
    <rc><c>Ni</c><c>   1</c></rc>
    <rc><c>Ni</c><c>   1</c></rc>
    <rc><c>Ni</c><c>   1</c></rc>
    <rc><c>Ni</c><c>   1</c></rc>
    <rc><c>Ni</c><c>   1</c></rc>
    <rc><c>Ni</c><c>   1</c></rc>
    <rc><c>Ni</c><c>   1</c></rc>
    <rc><c>Ni</c><c>   1</c></rc>
    <rc><c>Ni</c><c>   1</c></rc>
    <rc><c>Ni</c><c>   1</c></rc>
    <rc><c>Ni</c><c>   1</c></rc>
    <rc><c>Ni</c><c>   1</c></rc>
    <rc><c>Ni</c><c>   1</c></rc>
    <rc><c>Ni</c><c>   1</c></rc>
    <rc><c>Ni</c><c>   1</c></rc>
    <rc><c>Ni</c><c>   1</c></rc>
    <rc><c>Ni</c><c>   1</c></rc>
    <rc><c>Ni</c><c>   1</c></rc>
    <rc><c>Ni</c><c>   1</c></rc>
    <rc><c>H </c><c>   2</c></rc>
    <rc><c>H </c><c>   2</c></rc>
    <rc><c>H </c><c>   2</c></rc>
    <rc><c>H </c><c>   2</c></rc>
    <rc><c>C </c><c>   3</c></rc>
   </set>
  </array>
  <array name="atomtypes" >
   <dimension dim="1">type</dimension>
   <field type="int">atomspertype</field>
   <field type="string">element</field>
   <field>mass</field>
   <field>valence</field>
   <field type="string">pseudopotential</field>
   <set>
    <rc><c>  36</c><c>Ni</c><c>     58.69000000</c><c>     10.00000000</c><c>  PAW_PBE Ni 02Aug2007                  </c></rc>
    <rc><c>   4</c><c>H </c><c>      1.00000000</c><c>      1.00000000</c><c>  PAW_PBE H 15Jun2001                   </c></rc>
    <rc><c>   1</c><c>C </c><c>     12.01100000</c><c>      4.00000000</c><c>  PAW_PBE C 08Apr2002                   </c></rc>
   </set>
  </array>
 </atominfo>
 <structure name="initialpos" >
  <crystal>
   <varray name="basis" >
    <v>       7.54318933       0.00000000       0.00000000 </v>
    <v>      -3.77159466       6.53259358       0.00000000 </v>
    <v>       0.00000000       0.00000000      22.11523000 </v>
   </varray>
   <i name="volume">   1089.76312573 </i>
   <varray name="rec_basis" >
    <v>       0.13256992       0.07653928       0.00000000 </v>
    <v>       0.00000000       0.15307856       0.00000000 </v>
    <v>       0.00000000       0.00000000       0.04521771 </v>
   </varray>
  </crystal>
  <varray name="positions" >
   <v>       0.00000000       0.00000000       0.00000000 </v>
   <v>       0.00000000       0.33333333       0.00000000 </v>
   <v>       0.00000000       0.66666667       0.00000000 </v>
   <v>       0.33333333       0.00000000       0.00000000 </v>
   <v>       0.33333333       0.33333333       0.00000000 </v>
   <v>       0.33333333       0.66666667       0.00000000 </v>
   <v>       0.66666667       0.00000000       0.00000000 </v>
   <v>       0.66666667       0.33333333       0.00000000 </v>
   <v>       0.66666667       0.66666667       0.00000000 </v>
   <v>       0.44444444       0.22222222       0.09193664 </v>
   <v>       0.44444444       0.55555556       0.09193664 </v>
   <v>       0.44444444       0.88888889       0.09193664 </v>
   <v>       0.77777778       0.22222222       0.09193664 </v>
   <v>       0.77777778       0.55555556       0.09193664 </v>
   <v>       0.77777778       0.88888889       0.09193664 </v>
   <v>       0.11111111       0.22222222       0.09193664 </v>
   <v>       0.11111111       0.55555556       0.09193664 </v>
   <v>       0.11111111       0.88888889       0.09193664 </v>
   <v>       0.22222406       0.11110901       0.18464877 </v>
   <v>       0.22222939       0.44443757       0.18464967 </v>
   <v>       0.22223197       0.77778449       0.18464108 </v>
   <v>       0.55554664       0.11109982       0.18463973 </v>
   <v>       0.55554137       0.44442838       0.18464832 </v>
   <v>       0.55555079       0.77777837       0.18464018 </v>
   <v>       0.88889733       0.11110442       0.18464289 </v>
   <v>       0.88889455       0.44444063       0.18464199 </v>
   <v>       0.88890530       0.77779062       0.18464244 </v>
   <v>       0.00001563       0.00000864       0.27654246 </v>
   <v>       0.00000690       0.33332090       0.27653160 </v>
   <v>       0.00001708       0.66667242       0.27652392 </v>
   <v>       0.33333534       0.00000306       0.27654065 </v>
   <v>       0.33332011       0.33331172       0.27655647 </v>
   <v>       0.33333315       0.66666630       0.27653386 </v>
   <v>       0.66667137       0.00000098       0.27652708 </v>
   <v>       0.66666264       0.33331325       0.27652392 </v>
   <v>       0.66667190       0.66667089       0.27651668 </v>
   <v>       0.41246587       0.49160323       0.65478963 </v>
   <v>       0.41246587       0.25416596       0.65478963 </v>
   <v>       0.17502860       0.25416596       0.65478963 </v>
   <v>       0.33332011       0.33331172       0.58866446 </v>
   <v>       0.33332011       0.33331172       0.63825834 </v>
  </varray>
  <varray name="selective"  type="logical" >
   <v type="logical" >  F  F  F </v>
   <v type="logical" >  F  F  F </v>
   <v type="logical" >  F  F  F </v>
   <v type="logical" >  F  F  F </v>
   <v type="logical" >  F  F  F </v>
   <v type="logical" >  F  F  F </v>
   <v type="logical" >  F  F  F </v>
   <v type="logical" >  F  F  F </v>
   <v type="logical" >  F  F  F </v>
   <v type="logical" >  F  F  F </v>
   <v type="logical" >  F  F  F </v>
   <v type="logical" >  F  F  F </v>
   <v type="logical" >  F  F  F </v>
   <v type="logical" >  F  F  F </v>
   <v type="logical" >  F  F  F </v>
   <v type="logical" >  F  F  F </v>
   <v type="logical" >  F  F  F </v>
   <v type="logical" >  F  F  F </v>
   <v type="logical" >  T  T  T </v>
   <v type="logical" >  T  T  T </v>
   <v type="logical" >  T  T  T </v>
   <v type="logical" >  T  T  T </v>
   <v type="logical" >  T  T  T </v>
   <v type="logical" >  T  T  T </v>
   <v type="logical" >  T  T  T </v>
   <v type="logical" >  T  T  T </v>
   <v type="logical" >  T  T  T </v>
   <v type="logical" >  T  T  T </v>
   <v type="logical" >  T  T  T </v>
   <v type="logical" >  T  T  T </v>
   <v type="logical" >  T  T  T </v>
   <v type="logical" >  T  T  T </v>
   <v type="logical" >  T  T  T </v>
   <v type="logical" >  T  T  T </v>
   <v type="logical" >  T  T  T </v>
   <v type="logical" >  T  T  T </v>
   <v type="logical" >  T  T  T </v>
   <v type="logical" >  T  T  T </v>
   <v type="logical" >  T  T  T </v>
   <v type="logical" >  T  T  T </v>
   <v type="logical" >  T  T  T </v>
  </varray>
  <nose>
   <v>      -3.00000000       0.00000000       0.00010000       0.00010000 </v>
  </nose>
 </structure>
 <calculation>
  <scstep>
   <time name="dav">   22.26   22.41</time>
   <time name="total">   25.54   25.83</time>
   <energy>
    <i name="alphaZ">    630.21365347 </i>
    <i name="ewald"> 139348.96655322 </i>
    <i name="hartreedc">-177447.68489236 </i>
    <i name="XCdc">   1116.72680870 </i>
    <i name="pawpsdc">  34840.90210441 </i>
    <i name="pawaedc"> -37215.78412597 </i>
    <i name="eentropy">     -0.65949716 </i>
    <i name="bandstr">   2056.12562193 </i>
    <i name="atom">  39205.02725571 </i>
    <i name="e_fr_energy">   2533.83348196 </i>
    <i name="e_wo_entrp">   2534.49297912 </i>
    <i name="e_0_energy">   2534.16323054 </i>
   </energy>
  </scstep>
  <scstep>
   <time name="dav">   22.24   22.35</time>
   <time name="total">   22.24   22.36</time>
   <energy>
    <i name="e_fr_energy">    125.04608924 </i>
    <i name="e_wo_entrp">    126.57112855 </i>
    <i name="e_0_energy">    125.80860890 </i>
   </energy>
  </scstep>
  <scstep>
   <time name="dav">   23.73   24.07</time>
   <time name="total">   23.74   24.07</time>
   <energy>
    <i name="e_fr_energy">   -105.24046026 </i>
    <i name="e_wo_entrp">   -103.04651148 </i>
    <i name="e_0_energy">   -104.14348587 </i>
   </energy>
  </scstep>
  <scstep>
   <time name="dav">   23.58   23.70</time>
   <time name="total">   23.58   23.70</time>
   <energy>
    <i name="e_fr_energy">   -114.28476640 </i>
    <i name="e_wo_entrp">   -112.08683915 </i>
    <i name="e_0_energy">   -113.18580278 </i>
   </energy>
  </scstep>
  <scstep>
   <time name="dav">   28.38   28.53</time>
   <time name="total">   28.38   28.53</time>
   <energy>
    <i name="e_fr_energy">   -114.53301388 </i>
    <i name="e_wo_entrp">   -112.33496534 </i>
    <i name="e_0_energy">   -113.43398961 </i>
   </energy>
  </scstep>
  <scstep>
   <time name="dav">   28.46   28.61</time>
   <time name="total">   28.46   28.61</time>
   <energy>
    <i name="e_fr_energy">   -114.54597336 </i>
    <i name="e_wo_entrp">   -112.34791324 </i>
    <i name="e_0_energy">   -113.44694330 </i>
   </energy>
  </scstep>
  <scstep>
   <time name="dav">   23.32   23.44</time>
   <time name="total">   23.33   23.45</time>
   <energy>
    <i name="e_fr_energy">   -114.54626144 </i>
    <i name="e_wo_entrp">   -112.34820051 </i>
    <i name="e_0_energy">   -113.44723097 </i>
   </energy>
  </scstep>
  <scstep>
   <time name="dav">   17.05   17.14</time>
   <time name="total">   17.06   17.15</time>
   <energy>
    <i name="e_fr_energy">   -114.54627212 </i>
    <i name="e_wo_entrp">   -112.34821120 </i>
    <i name="e_0_energy">   -113.44724166 </i>
   </energy>
  </scstep>
  <scstep>
   <time name="dav">   15.47   15.55</time>
   <time name="total">   15.48   15.55</time>
   <energy>
    <i name="e_fr_energy">   -114.54627319 </i>
    <i name="e_wo_entrp">   -112.34821227 </i>
    <i name="e_0_energy">   -113.44724273 </i>
   </energy>
  </scstep>
  <scstep>
   <time name="dav">   14.99   15.06</time>
   <time name="total">   14.99   15.07</time>
   <energy>
    <i name="e_fr_energy">   -114.54627365 </i>
    <i name="e_wo_entrp">   -112.34821274 </i>
    <i name="e_0_energy">   -113.44724320 </i>
   </energy>
  </scstep>
  <scstep>
   <time name="dav">   14.88   14.95</time>
   <time name="total">   14.88   14.96</time>
   <energy>
    <i name="e_fr_energy">   -114.54627389 </i>
    <i name="e_wo_entrp">   -112.34821297 </i>
    <i name="e_0_energy">   -113.44724343 </i>
   </energy>
  </scstep>
  <scstep>
   <time name="dav">   14.87   14.95</time>
   <time name="total">   16.49   16.57</time>
   <energy>
    <i name="e_fr_energy">   -114.54627402 </i>
    <i name="e_wo_entrp">   -112.34821310 </i>
    <i name="e_0_energy">   -113.44724356 </i>
   </energy>
  </scstep>
  <scstep>
   <time name="diag">    4.45    4.47</time>
   <time name="diis">   15.81   15.87</time>
   <time name="orth">    0.41    0.42</time>
   <time name="total">   27.25   27.35</time>
   <energy>
    <i name="e_fr_energy">   -125.69868422 </i>
    <i name="e_wo_entrp">   -124.15624420 </i>
    <i name="e_0_energy">   -124.92746421 </i>
   </energy>
  </scstep>
  <scstep>
   <time name="diag">    4.45    4.47</time>
   <time name="diis">   12.24   12.29</time>
   <time name="orth">    0.41    0.42</time>
   <time name="total">   21.57   21.65</time>
   <energy>
    <i name="e_fr_energy">   -129.05405616 </i>
    <i name="e_wo_entrp">   -126.98456263 </i>
    <i name="e_0_energy">   -128.01930939 </i>
   </energy>
  </scstep>
  <scstep>
   <time name="diag">    6.29    6.31</time>
   <time name="diis">   31.01   31.10</time>
   <time name="orth">    0.41    0.42</time>
   <time name="total">   44.21   44.34</time>
   <energy>
    <i name="e_fr_energy">    -91.32733008 </i>
    <i name="e_wo_entrp">    -89.27571155 </i>
    <i name="e_0_energy">    -90.30152082 </i>
   </energy>
  </scstep>
  <scstep>
   <time name="diag">   10.94   10.97</time>
   <time name="diis">   17.28   17.54</time>
   <time name="orth">    0.41    0.41</time>
   <time name="total">   34.42   34.72</time>
   <energy>
    <i name="e_fr_energy">   -103.19983626 </i>
    <i name="e_wo_entrp">   -101.52057806 </i>
    <i name="e_0_energy">   -102.36020716 </i>
   </energy>
  </scstep>
  <scstep>
   <time name="diag">   10.07   10.10</time>
   <time name="diis">   18.09   18.15</time>
   <time name="orth">    0.41    0.41</time>
   <time name="total">   33.04   33.15</time>
   <energy>
    <i name="e_fr_energy">    -95.94652601 </i>
    <i name="e_wo_entrp">    -93.88504658 </i>
    <i name="e_0_energy">    -94.91578630 </i>
   </energy>
  </scstep>
  <scstep>
   <time name="diag">    4.46    4.48</time>
   <time name="diis">   12.26   12.30</time>
   <time name="orth">    0.41    0.42</time>
   <time name="total">   21.59   21.67</time>
   <energy>
    <i name="e_fr_energy">    -88.44970027 </i>
    <i name="e_wo_entrp">    -86.07420969 </i>
    <i name="e_0_energy">    -87.26195498 </i>
   </energy>
  </scstep>
  <scstep>
   <time name="diag">    5.91    5.93</time>
   <time name="diis">   13.40   13.45</time>
   <time name="orth">    0.41    0.42</time>
   <time name="total">   24.18   24.27</time>
   <energy>
    <i name="e_fr_energy">    -89.62518665 </i>
    <i name="e_wo_entrp">    -87.37974721 </i>
    <i name="e_0_energy">    -88.50246693 </i>
   </energy>
  </scstep>
  <scstep>
   <time name="diag">    4.47    4.49</time>
   <time name="diis">   12.25   12.30</time>
   <time name="orth">    0.41    0.42</time>
   <time name="total">   21.60   21.68</time>
   <energy>
    <i name="e_fr_energy">    -89.03437067 </i>
    <i name="e_wo_entrp">    -86.73274625 </i>
    <i name="e_0_energy">    -87.88355846 </i>
   </energy>
  </scstep>
  <scstep>
   <time name="diag">    4.47    4.49</time>
   <time name="diis">   12.27   12.32</time>
   <time name="orth">    0.41    0.42</time>
   <time name="total">   21.61   21.69</time>
   <energy>
    <i name="e_fr_energy">    -90.10535058 </i>
    <i name="e_wo_entrp">    -87.84603106 </i>
    <i name="e_0_energy">    -88.97569082 </i>
   </energy>
  </scstep>
  <scstep>
   <time name="diag">    4.48    4.50</time>
   <time name="diis">   12.28   12.33</time>
   <time name="orth">    0.41    0.42</time>
   <time name="total">   21.64   21.72</time>
   <energy>
    <i name="e_fr_energy">    -90.21673215 </i>
    <i name="e_wo_entrp">    -87.98234598 </i>
    <i name="e_0_energy">    -89.09953907 </i>
   </energy>
  </scstep>
  <scstep>
   <time name="diag">    4.47    4.49</time>
   <time name="diis">   12.30   12.35</time>
   <time name="orth">    0.41    0.42</time>
   <time name="total">   21.65   21.74</time>
   <energy>
    <i name="e_fr_energy">    -90.29051447 </i>
    <i name="e_wo_entrp">    -88.06697592 </i>
    <i name="e_0_energy">    -89.17874519 </i>
   </energy>
  </scstep>
  <scstep>
   <time name="diag">    4.48    4.50</time>
   <time name="diis">   12.32   12.37</time>
   <time name="orth">    0.41    0.42</time>
   <time name="total">   21.69   21.77</time>
   <energy>
    <i name="e_fr_energy">    -90.66883942 </i>
    <i name="e_wo_entrp">    -88.50694514 </i>
    <i name="e_0_energy">    -89.58789228 </i>
   </energy>
  </scstep>
  <scstep>
   <time name="diag">    4.48    4.49</time>
   <time name="diis">   12.32   12.37</time>
   <time name="orth">    0.41    0.42</time>
   <time name="total">   21.68   21.77</time>
   <energy>
    <i name="e_fr_energy">    -90.70180665 </i>
    <i name="e_wo_entrp">    -88.55332320 </i>
    <i name="e_0_energy">    -89.62756493 </i>
   </energy>
  </scstep>
  <scstep>
   <time name="diag">    4.48    4.50</time>
   <time name="diis">   12.36   12.41</time>
   <time name="orth">    0.42    0.42</time>
   <time name="total">   21.72   21.81</time>
   <energy>
    <i name="e_fr_energy">    -90.77431272 </i>
    <i name="e_wo_entrp">    -88.63486149 </i>
    <i name="e_0_energy">    -89.70458710 </i>
   </energy>
  </scstep>
  <scstep>
   <time name="diag">    4.48    4.49</time>
   <time name="diis">   12.35   12.40</time>
   <time name="orth">    0.41    0.42</time>
   <time name="total">   21.71   21.79</time>
   <energy>
    <i name="e_fr_energy">    -90.70122687 </i>
    <i name="e_wo_entrp">    -88.56991680 </i>
    <i name="e_0_energy">    -89.63557184 </i>
   </energy>
  </scstep>
  <scstep>
   <time name="diag">    4.49    4.51</time>
   <time name="diis">   12.33   12.38</time>
   <time name="orth">    0.41    0.42</time>
   <time name="total">   21.71   21.79</time>
   <energy>
    <i name="e_fr_energy">    -90.63506655 </i>
    <i name="e_wo_entrp">    -88.47624973 </i>
    <i name="e_0_energy">    -89.55565814 </i>
   </energy>
  </scstep>
  <scstep>
   <time name="diag">    4.49    4.50</time>
   <time name="diis">   12.41   12.67</time>
   <time name="orth">    0.41    0.42</time>
   <time name="total">   21.79   22.08</time>
   <energy>
    <i name="e_fr_energy">    -90.48304134 </i>
    <i name="e_wo_entrp">    -88.28619395 </i>
    <i name="e_0_energy">    -89.38461765 </i>
   </energy>
  </scstep>
  <scstep>
   <time name="diag">    4.49    4.50</time>
   <time name="diis">   13.76   13.81</time>
   <time name="orth">    0.41    0.42</time>
   <time name="total">   23.14   23.23</time>
   <energy>
    <i name="e_fr_energy">    -90.50176950 </i>
    <i name="e_wo_entrp">    -88.30328158 </i>
    <i name="e_0_energy">    -89.40252554 </i>
   </energy>
  </scstep>
  <scstep>
   <time name="diag">    5.87    5.89</time>
   <time name="diis">   17.54   17.60</time>
   <time name="orth">    0.41    0.42</time>
   <time name="total">   28.30   28.40</time>
   <energy>
    <i name="e_fr_energy">    -90.55373145 </i>
    <i name="e_wo_entrp">    -88.35745056 </i>
    <i name="e_0_energy">    -89.45559101 </i>
   </energy>
  </scstep>
  <scstep>
   <time name="diag">    5.93    5.95</time>
   <time name="diis">   19.93   19.99</time>
   <time name="orth">    0.41    0.42</time>
   <time name="total">   34.31   34.42</time>
   <energy>
    <i name="e_fr_energy">    -90.57286433 </i>
    <i name="e_wo_entrp">    -88.37743472 </i>
    <i name="e_0_energy">    -89.47514953 </i>
   </energy>
  </scstep>
  <scstep>
   <time name="diag">    4.50    4.51</time>
   <time name="diis">   12.39   12.44</time>
   <time name="orth">    0.41    0.42</time>
   <time name="total">   23.85   23.93</time>
   <energy>
    <i name="e_fr_energy">    -90.61612546 </i>
    <i name="e_wo_entrp">    -88.41595922 </i>
    <i name="e_0_energy">    -89.51604234 </i>
   </energy>
  </scstep>
  <scstep>
   <time name="diag">    4.50    4.52</time>
   <time name="diis">   13.78   13.83</time>
   <time name="orth">    0.41    0.42</time>
   <time name="total">   23.18   23.26</time>
   <energy>
    <i name="e_fr_energy">    -90.62277907 </i>
    <i name="e_wo_entrp">    -88.42096852 </i>
    <i name="e_0_energy">    -89.52187379 </i>
   </energy>
  </scstep>
  <scstep>
   <time name="diag">    4.50    4.52</time>
   <time name="diis">   12.35   12.40</time>
   <time name="orth">    0.41    0.41</time>
   <time name="total">   21.76   21.84</time>
   <energy>
    <i name="e_fr_energy">    -90.64422601 </i>
    <i name="e_wo_entrp">    -88.44037315 </i>
    <i name="e_0_energy">    -89.54229958 </i>
   </energy>
  </scstep>
  <scstep>
   <time name="diag">    4.50    4.52</time>
   <time name="diis">   13.54   13.60</time>
   <time name="orth">    0.41    0.42</time>
   <time name="total">   22.95   23.03</time>
   <energy>
    <i name="e_fr_energy">    -90.63370341 </i>
    <i name="e_wo_entrp">    -88.42830530 </i>
    <i name="e_0_energy">    -89.53100436 </i>
   </energy>
  </scstep>
  <scstep>
   <time name="diag">    4.50    4.52</time>
   <time name="diis">   12.37   12.42</time>
   <time name="orth">    0.41    0.42</time>
   <time name="total">   21.77   21.85</time>
   <energy>
    <i name="e_fr_energy">    -90.62955961 </i>
    <i name="e_wo_entrp">    -88.42281051 </i>
    <i name="e_0_energy">    -89.52618506 </i>
   </energy>
  </scstep>
  <scstep>
   <time name="diag">    4.50    4.52</time>
   <time name="diis">   12.34   12.39</time>
   <time name="orth">    0.41    0.42</time>
   <time name="total">   21.74   21.82</time>
   <energy>
    <i name="e_fr_energy">    -90.62206247 </i>
    <i name="e_wo_entrp">    -88.41382737 </i>
    <i name="e_0_energy">    -89.51794492 </i>
   </energy>
  </scstep>
  <scstep>
   <time name="diag">    4.50    4.51</time>
   <time name="diis">   12.29   12.34</time>
   <time name="orth">    0.41    0.42</time>
   <time name="total">   21.69   21.77</time>
   <energy>
    <i name="e_fr_energy">    -90.62482718 </i>
    <i name="e_wo_entrp">    -88.41653513 </i>
    <i name="e_0_energy">    -89.52068115 </i>
   </energy>
  </scstep>
  <scstep>
   <time name="diag">    4.51    4.53</time>
   <time name="diis">   12.22   12.27</time>
   <time name="orth">    0.41    0.42</time>
   <time name="total">   21.64   21.72</time>
   <energy>
    <i name="e_fr_energy">    -90.62473014 </i>
    <i name="e_wo_entrp">    -88.41627970 </i>
    <i name="e_0_energy">    -89.52050492 </i>
   </energy>
  </scstep>
  <scstep>
   <time name="diag">    4.50    4.52</time>
   <time name="diis">   11.73   11.78</time>
   <time name="orth">    0.41    0.42</time>
   <time name="total">   21.14   21.22</time>
   <energy>
    <i name="e_fr_energy">    -90.62542172 </i>
    <i name="e_wo_entrp">    -88.41660140 </i>
    <i name="e_0_energy">    -89.52101156 </i>
   </energy>
  </scstep>
  <scstep>
   <time name="diag">    4.50    4.52</time>
   <time name="diis">   11.15   11.19</time>
   <time name="orth">    0.41    0.42</time>
   <time name="total">   20.58   20.86</time>
   <energy>
    <i name="e_fr_energy">    -90.62485238 </i>
    <i name="e_wo_entrp">    -88.41535643 </i>
    <i name="e_0_energy">    -89.52010441 </i>
   </energy>
  </scstep>
  <scstep>
   <time name="diag">    4.51    4.53</time>
   <time name="diis">    8.20    8.23</time>
   <time name="orth">    0.41    0.41</time>
   <time name="total">   17.64   17.70</time>
   <energy>
    <i name="e_fr_energy">    -90.62518003 </i>
    <i name="e_wo_entrp">    -88.41521888 </i>
    <i name="e_0_energy">    -89.52019946 </i>
   </energy>
  </scstep>
  <scstep>
   <time name="diag">    4.50    4.52</time>
   <time name="diis">    8.17    8.21</time>
   <time name="orth">    0.41    0.42</time>
   <time name="total">   17.60   17.67</time>
   <energy>
    <i name="e_fr_energy">    -90.62578442 </i>
    <i name="e_wo_entrp">    -88.41508602 </i>
    <i name="e_0_energy">    -89.52043522 </i>
   </energy>
  </scstep>
  <scstep>
   <time name="diag">    4.50    4.53</time>
   <time name="diis">    7.60    7.63</time>
   <time name="orth">    0.41    0.41</time>
   <time name="total">   17.01   17.08</time>
   <energy>
    <i name="e_fr_energy">    -90.62598147 </i>
    <i name="e_wo_entrp">    -88.41516920 </i>
    <i name="e_0_energy">    -89.52057533 </i>
   </energy>
  </scstep>
  <scstep>
   <time name="diag">    4.50    4.52</time>
   <time name="diis">    8.03    8.06</time>
   <time name="orth">    0.41    0.42</time>
   <time name="total">   17.45   17.51</time>
   <energy>
    <i name="e_fr_energy">    -90.62709005 </i>
    <i name="e_wo_entrp">    -88.41625033 </i>
    <i name="e_0_energy">    -89.52167019 </i>
   </energy>
  </scstep>
  <scstep>
   <time name="diag">    4.51    4.52</time>
   <time name="diis">    7.66    7.69</time>
   <time name="orth">    0.41    0.41</time>
   <time name="total">   17.08   17.14</time>
   <energy>
    <i name="e_fr_energy">    -90.62744688 </i>
    <i name="e_wo_entrp">    -88.41662507 </i>
    <i name="e_0_energy">    -89.52203597 </i>
   </energy>
  </scstep>
  <scstep>
   <time name="diag">    4.50    4.52</time>
   <time name="diis">    7.97    8.00</time>
   <time name="orth">    0.41    0.41</time>
   <time name="total">   17.38   17.45</time>
   <energy>
    <i name="e_fr_energy">    -90.62814880 </i>
    <i name="e_wo_entrp">    -88.41740302 </i>
    <i name="e_0_energy">    -89.52277591 </i>
   </energy>
  </scstep>
  <scstep>
   <time name="diag">    4.50    4.52</time>
   <time name="diis">    7.59    7.62</time>
   <time name="orth">    0.41    0.41</time>
   <time name="total">   17.01   17.07</time>
   <energy>
    <i name="e_fr_energy">    -90.62825879 </i>
    <i name="e_wo_entrp">    -88.41750058 </i>
    <i name="e_0_energy">    -89.52287969 </i>
   </energy>
  </scstep>
  <scstep>
   <time name="diag">    4.51    4.53</time>
   <time name="diis">    9.25    9.28</time>
   <time name="orth">    0.41    0.41</time>
   <time name="total">   21.43   21.50</time>
   <energy>
    <i name="e_fr_energy">    -90.62859841 </i>
    <i name="e_wo_entrp">    -88.41775541 </i>
    <i name="e_0_energy">    -89.52317691 </i>
   </energy>
  </scstep>
  <scstep>
   <time name="diag">    6.48    6.51</time>
   <time name="diis">    7.57    7.60</time>
   <time name="orth">    0.41    0.41</time>
   <time name="total">   18.97   19.03</time>
   <energy>
    <i name="e_fr_energy">    -90.62877768 </i>
    <i name="e_wo_entrp">    -88.41788505 </i>
    <i name="e_0_energy">    -89.52333136 </i>
   </energy>
  </scstep>
  <scstep>
   <time name="diag">    4.51    4.54</time>
   <time name="diis">   10.06   10.10</time>
   <time name="orth">    0.41    0.41</time>
   <time name="total">   19.49   19.56</time>
   <energy>
    <i name="e_fr_energy">    -90.62947504 </i>
    <i name="e_wo_entrp">    -88.41842349 </i>
    <i name="e_0_energy">    -89.52394927 </i>
   </energy>
  </scstep>
  <scstep>
   <time name="diag">    7.77    7.80</time>
   <time name="diis">    7.45    7.48</time>
   <time name="orth">    0.41    0.41</time>
   <time name="total">   18.53   18.59</time>
   <energy>
    <i name="alphaZ">    630.21365347 </i>
    <i name="ewald"> 139348.96655322 </i>
    <i name="hartreedc">-177213.02287178 </i>
    <i name="XCdc">   1087.65487614 </i>
    <i name="pawpsdc">  40226.04236458 </i>
    <i name="pawaedc"> -42668.62985686 </i>
    <i name="eentropy">     -2.21106363 </i>
    <i name="bandstr">   -704.67047462 </i>
    <i name="atom">  39205.02725571 </i>
    <i name="e_fr_energy">    -90.62956377 </i>
    <i name="e_wo_entrp">    -88.41850014 </i>
    <i name="e_0_energy">    -89.52403196 </i>
   </energy>
  </scstep>
  <structure>
   <crystal>
    <varray name="basis" >
     <v>       7.54318933       0.00000000       0.00000000 </v>
     <v>      -3.77159466       6.53259358       0.00000000 </v>
     <v>       0.00000000       0.00000000      22.11523000 </v>
    </varray>
    <i name="volume">   1089.76312573 </i>
    <varray name="rec_basis" >
     <v>       0.13256992       0.07653928       0.00000000 </v>
     <v>       0.00000000       0.15307856       0.00000000 </v>
     <v>       0.00000000       0.00000000       0.04521771 </v>
    </varray>
   </crystal>
   <varray name="positions" >
    <v>       0.00000000       0.00000000       0.00000000 </v>
    <v>       0.00000000       0.33333333       0.00000000 </v>
    <v>       0.00000000       0.66666667       0.00000000 </v>
    <v>       0.33333333       0.00000000       0.00000000 </v>
    <v>       0.33333333       0.33333333       0.00000000 </v>
    <v>       0.33333333       0.66666667       0.00000000 </v>
    <v>       0.66666667       0.00000000       0.00000000 </v>
    <v>       0.66666667       0.33333333       0.00000000 </v>
    <v>       0.66666667       0.66666667       0.00000000 </v>
    <v>       0.44444444       0.22222222       0.09193664 </v>
    <v>       0.44444444       0.55555556       0.09193664 </v>
    <v>       0.44444444       0.88888889       0.09193664 </v>
    <v>       0.77777778       0.22222222       0.09193664 </v>
    <v>       0.77777778       0.55555556       0.09193664 </v>
    <v>       0.77777778       0.88888889       0.09193664 </v>
    <v>       0.11111111       0.22222222       0.09193664 </v>
    <v>       0.11111111       0.55555556       0.09193664 </v>
    <v>       0.11111111       0.88888889       0.09193664 </v>
    <v>       0.22222406       0.11110901       0.18464877 </v>
    <v>       0.22222939       0.44443757       0.18464967 </v>
    <v>       0.22223197       0.77778449       0.18464108 </v>
    <v>       0.55554664       0.11109982       0.18463973 </v>
    <v>       0.55554137       0.44442838       0.18464832 </v>
    <v>       0.55555079       0.77777837       0.18464018 </v>
    <v>       0.88889733       0.11110442       0.18464289 </v>
    <v>       0.88889455       0.44444063       0.18464199 </v>
    <v>       0.88890530       0.77779062       0.18464244 </v>
    <v>       0.00001563       0.00000864       0.27654246 </v>
    <v>       0.00000690       0.33332090       0.27653160 </v>
    <v>       0.00001708       0.66667242       0.27652392 </v>
    <v>       0.33333534       0.00000306       0.27654065 </v>
    <v>       0.33332011       0.33331172       0.27655647 </v>
    <v>       0.33333315       0.66666630       0.27653386 </v>
    <v>       0.66667137       0.00000098       0.27652708 </v>
    <v>       0.66666264       0.33331325       0.27652392 </v>
    <v>       0.66667190       0.66667089       0.27651668 </v>
    <v>       0.41246587       0.49160323       0.65478963 </v>
    <v>       0.41246587       0.25416596       0.65478963 </v>
    <v>       0.17502860       0.25416596       0.65478963 </v>
    <v>       0.33332011       0.33331172       0.58866446 </v>
    <v>       0.33332011       0.33331172       0.63825834 </v>
   </varray>
  </structure>
  <varray name="forces" >
   <v>      -0.00001774       0.00011310       0.00266903 </v>
   <v>       0.00012522       0.00004603       0.00264566 </v>
   <v>      -0.00006103      -0.00002570       0.00308833 </v>
   <v>      -0.00004352       0.00010806       0.00281881 </v>
   <v>      -0.00006725       0.00015629       0.00330915 </v>
   <v>       0.00011877      -0.00012683       0.00241020 </v>
   <v>      -0.00004039      -0.00003401       0.00296259 </v>
   <v>      -0.00017299       0.00007500       0.00265660 </v>
   <v>      -0.00015160      -0.00012835       0.00254309 </v>
   <v>      -0.00035973       0.00011928      -0.00300179 </v>
   <v>      -0.00005423      -0.00027378      -0.00299750 </v>
   <v>      -0.00006786      -0.00008624      -0.00334705 </v>
   <v>       0.00007784       0.00002170      -0.00296028 </v>
   <v>      -0.00030281      -0.00002777      -0.00275806 </v>
   <v>       0.00006477      -0.00006218      -0.00310237 </v>
   <v>       0.00023359       0.00018050      -0.00290458 </v>
   <v>       0.00029264      -0.00012365      -0.00283979 </v>
   <v>      -0.00003864       0.00030247      -0.00303281 </v>
   <v>       0.00001758       0.00029300       0.00045192 </v>
   <v>      -0.00001841       0.00006360       0.00009012 </v>
   <v>      -0.00004900      -0.00043531      -0.00018301 </v>
   <v>       0.00030348       0.00038198      -0.00028315 </v>
   <v>       0.00019885       0.00039487      -0.00023138 </v>
   <v>       0.00041268      -0.00029100      -0.00068360 </v>
   <v>      -0.00018624       0.00011867       0.00026215 </v>
   <v>      -0.00007461      -0.00002516      -0.00018195 </v>
   <v>      -0.00028496      -0.00053547      -0.00010626 </v>
   <v>      -0.00033318      -0.00057321      -0.00186557 </v>
   <v>      -0.00041959       0.00035052      -0.00105206 </v>
   <v>      -0.00052584      -0.00047168      -0.00033016 </v>
   <v>       0.00028964      -0.00018617      -0.00214197 </v>
   <v>       0.00043396       0.00088026      -0.00298169 </v>
   <v>       0.00037300      -0.00013880      -0.00156525 </v>
   <v>       0.00005253      -0.00022152      -0.00062613 </v>
   <v>      -0.00002962       0.00074525      -0.00045971 </v>
   <v>       0.00010663      -0.00041791      -0.00003447 </v>
   <v>      -0.00007272       0.00116899       0.00432494 </v>
   <v>       0.00096774      -0.00061253       0.00424965 </v>
   <v>      -0.00105661      -0.00058164       0.00431003 </v>
   <v>      -0.00000356       0.00000118       0.00237940 </v>
   <v>       0.00036320      -0.00014184      -0.00150106 </v>
  </varray>
  <varray name="stress" >
   <v>     -19.62792738       0.01015319      -0.00085387 </v>
   <v>       0.01015348     -19.61604260       0.00021881 </v>
   <v>      -0.00085390       0.00021877      -3.19815461 </v>
  </varray>
  <energy>
   <i name="e_fr_energy">    -90.62956377 </i>
   <i name="e_wo_entrp">    -89.52403196 </i>
   <i name="e_0_energy">     -2.21106363 </i>
  </energy>
  <time name="totalsc"> 1249.56 1256.56</time>
  <eigenvalues>
   <array>
    <dimension dim="1">band</dimension>
    <dimension dim="2">kpoint</dimension>
    <dimension dim="3">spin</dimension>
    <field>eigene</field>
    <field>occ</field>
    <set>
     <set comment="spin 1">
      <set comment="kpoint 1">
       <r>  -11.7953    1.0000 </r>
       <r>   -8.0070    1.0000 </r>
       <r>   -6.6927    1.0000 </r>
       <r>   -5.0783    1.0000 </r>
       <r>   -4.9796    1.0000 </r>
       <r>   -4.9795    1.0000 </r>
       <r>   -4.9795    1.0000 </r>
       <r>   -4.9794    1.0000 </r>
       <r>   -4.9794    1.0000 </r>
       <r>   -4.9794    1.0000 </r>
       <r>   -4.4174    1.0000 </r>
       <r>   -4.2924    1.0000 </r>
       <r>   -4.2924    1.0000 </r>
       <r>   -4.2924    1.0000 </r>
       <r>   -4.2924    1.0000 </r>
       <r>   -4.2923    1.0000 </r>
       <r>   -4.2923    1.0000 </r>
       <r>   -4.2451    1.0000 </r>
       <r>   -4.2446    1.0000 </r>
       <r>   -4.2445    1.0000 </r>
       <r>   -3.6627    1.0000 </r>
       <r>   -3.6627    1.0000 </r>
       <r>   -3.6627    1.0000 </r>
       <r>   -3.6626    1.0000 </r>
       <r>   -3.6626    1.0000 </r>
       <r>   -3.6626    1.0000 </r>
       <r>   -3.4214    1.0000 </r>
       <r>   -3.4214    1.0000 </r>
       <r>   -3.4214    1.0000 </r>
       <r>   -3.4214    1.0000 </r>
       <r>   -3.4214    1.0000 </r>
       <r>   -3.4213    1.0000 </r>
       <r>   -3.1959    1.0000 </r>
       <r>   -3.1958    1.0000 </r>
       <r>   -3.1952    1.0000 </r>
       <r>   -3.1952    1.0000 </r>
       <r>   -3.1681    1.0000 </r>
       <r>   -3.1681    1.0000 </r>
       <r>   -3.1681    1.0000 </r>
       <r>   -3.1681    1.0000 </r>
       <r>   -3.1680    1.0000 </r>
       <r>   -3.1680    1.0000 </r>
       <r>   -3.1196    1.0000 </r>
       <r>   -3.1196    1.0000 </r>
       <r>   -2.9990    1.0000 </r>
       <r>   -2.9990    1.0000 </r>
       <r>   -2.9970    1.0000 </r>
       <r>   -2.9970    1.0000 </r>
       <r>   -2.8912    1.0000 </r>
       <r>   -2.8912    1.0000 </r>
       <r>   -2.8312    1.0000 </r>
       <r>   -2.8311    1.0000 </r>
       <r>   -2.8311    1.0000 </r>
       <r>   -2.8311    1.0000 </r>
       <r>   -2.8310    1.0000 </r>
       <r>   -2.8310    1.0000 </r>
       <r>   -2.7603    1.0000 </r>
       <r>   -2.7603    1.0000 </r>
       <r>   -2.3566    1.0000 </r>
       <r>   -2.3565    1.0000 </r>
       <r>   -2.3565    1.0000 </r>
       <r>   -2.3564    1.0000 </r>
       <r>   -2.3564    1.0000 </r>
       <r>   -2.3564    1.0000 </r>
       <r>   -2.2864    1.0000 </r>
       <r>   -2.2863    1.0000 </r>
       <r>   -2.2860    1.0000 </r>
       <r>   -2.2860    1.0000 </r>
       <r>   -2.2134    1.0000 </r>
       <r>   -2.2133    1.0000 </r>
       <r>   -2.2133    1.0000 </r>
       <r>   -2.2133    1.0000 </r>
       <r>   -2.2132    1.0000 </r>
       <r>   -2.2132    1.0000 </r>
       <r>   -2.1977    1.0000 </r>
       <r>   -2.1276    1.0000 </r>
       <r>   -2.0500    1.0000 </r>
       <r>   -2.0499    1.0000 </r>
       <r>   -2.0446    1.0000 </r>
       <r>   -2.0446    1.0000 </r>
       <r>   -1.9434    1.0000 </r>
       <r>   -1.9434    1.0000 </r>
       <r>   -1.9433    1.0000 </r>
       <r>   -1.9432    1.0000 </r>
       <r>   -1.9432    1.0000 </r>
       <r>   -1.9432    1.0000 </r>
       <r>   -1.8760    1.0000 </r>
       <r>   -1.8760    1.0000 </r>
       <r>   -1.8757    1.0000 </r>
       <r>   -1.8757    1.0000 </r>
       <r>   -1.8436    1.0000 </r>
       <r>   -1.8436    1.0000 </r>
       <r>   -1.8436    1.0000 </r>
       <r>   -1.8435    1.0000 </r>
       <r>   -1.8434    1.0000 </r>
       <r>   -1.8434    1.0000 </r>
       <r>   -1.8277    1.0000 </r>
       <r>   -1.8026    1.0000 </r>
       <r>   -1.8026    1.0000 </r>
       <r>   -1.7627    1.0000 </r>
       <r>   -1.7626    1.0000 </r>
       <r>   -1.7590    1.0000 </r>
       <r>   -1.7590    1.0000 </r>
       <r>   -1.7585    1.0000 </r>
       <r>   -1.7585    1.0000 </r>
       <r>   -1.6659    1.0000 </r>
       <r>   -1.6658    1.0000 </r>
       <r>   -1.6658    1.0000 </r>
       <r>   -1.6657    1.0000 </r>
       <r>   -1.6657    1.0000 </r>
       <r>   -1.6657    1.0000 </r>
       <r>   -1.3887    1.0000 </r>
       <r>   -1.3887    1.0000 </r>
       <r>   -1.3887    1.0000 </r>
       <r>   -1.3886    1.0000 </r>
       <r>   -1.3886    1.0000 </r>
       <r>   -1.3886    1.0000 </r>
       <r>   -1.3417    1.0000 </r>
       <r>   -1.3417    1.0000 </r>
       <r>   -1.3416    1.0000 </r>
       <r>   -1.3416    1.0000 </r>
       <r>   -1.3415    1.0000 </r>
       <r>   -1.3415    1.0000 </r>
       <r>   -1.2066    1.0000 </r>
       <r>   -1.2065    1.0000 </r>
       <r>   -1.1443    1.0000 </r>
       <r>   -1.1443    1.0000 </r>
       <r>   -1.1443    1.0000 </r>
       <r>   -1.1442    1.0000 </r>
       <r>   -1.1442    1.0000 </r>
       <r>   -1.1442    1.0000 </r>
       <r>   -1.0346    1.0000 </r>
       <r>   -1.0346    1.0000 </r>
       <r>   -0.9934    1.0000 </r>
       <r>   -0.9934    1.0000 </r>
       <r>   -0.9927    1.0000 </r>
       <r>   -0.9927    1.0000 </r>
       <r>   -0.9252    1.0000 </r>
       <r>   -0.9252    1.0000 </r>
       <r>   -0.9251    1.0000 </r>
       <r>   -0.9251    1.0000 </r>
       <r>   -0.9251    1.0000 </r>
       <r>   -0.9250    1.0000 </r>
       <r>   -0.8957    1.0000 </r>
       <r>   -0.8957    1.0000 </r>
       <r>   -0.8282    1.0000 </r>
       <r>   -0.8282    1.0000 </r>
       <r>   -0.8282    1.0000 </r>
       <r>   -0.8281    1.0000 </r>
       <r>   -0.8281    1.0000 </r>
       <r>   -0.8281    1.0000 </r>
       <r>   -0.7377    0.9999 </r>
       <r>   -0.7377    0.9999 </r>
       <r>   -0.7377    0.9999 </r>
       <r>   -0.7376    0.9999 </r>
       <r>   -0.7376    0.9999 </r>
       <r>   -0.7376    0.9999 </r>
       <r>   -0.6752    0.9998 </r>
       <r>   -0.6751    0.9998 </r>
       <r>   -0.6271    0.9997 </r>
       <r>   -0.6270    0.9997 </r>
       <r>   -0.6270    0.9997 </r>
       <r>   -0.6270    0.9997 </r>
       <r>   -0.6269    0.9997 </r>
       <r>   -0.6269    0.9997 </r>
       <r>   -0.5878    0.9996 </r>
       <r>   -0.5878    0.9996 </r>
       <r>   -0.5877    0.9996 </r>
       <r>   -0.5877    0.9996 </r>
       <r>   -0.5877    0.9996 </r>
       <r>   -0.5877    0.9996 </r>
       <r>   -0.5832    0.9996 </r>
       <r>   -0.5832    0.9996 </r>
       <r>   -0.5831    0.9996 </r>
       <r>   -0.5831    0.9996 </r>
       <r>   -0.5830    0.9996 </r>
       <r>   -0.5830    0.9996 </r>
       <r>   -0.5347    0.9993 </r>
       <r>   -0.5346    0.9993 </r>
       <r>   -0.5333    0.9993 </r>
       <r>   -0.5333    0.9993 </r>
       <r>   -0.5190    0.9992 </r>
       <r>   -0.5190    0.9992 </r>
       <r>   -0.5189    0.9992 </r>
       <r>   -0.5189    0.9992 </r>
       <r>   -0.5059    0.9991 </r>
       <r>   -0.5059    0.9991 </r>
       <r>   -0.5059    0.9991 </r>
       <r>   -0.5058    0.9991 </r>
       <r>   -0.5058    0.9991 </r>
       <r>   -0.5058    0.9991 </r>
       <r>   -0.3824    0.9970 </r>
       <r>   -0.3824    0.9970 </r>
       <r>   -0.3676    0.9965 </r>
       <r>   -0.3493    0.9958 </r>
       <r>   -0.3493    0.9958 </r>
       <r>   -0.3493    0.9958 </r>
       <r>   -0.3492    0.9958 </r>
       <r>   -0.3492    0.9958 </r>
       <r>   -0.3492    0.9958 </r>
       <r>    0.6155    0.0151 </r>
       <r>    0.8877    0.0010 </r>
       <r>    0.8877    0.0010 </r>
       <r>    0.8878    0.0010 </r>
       <r>    0.8879    0.0010 </r>
       <r>    0.8879    0.0010 </r>
       <r>    0.8879    0.0010 </r>
       <r>    3.2665    0.0000 </r>
       <r>    3.2668    0.0000 </r>
       <r>    3.2668    0.0000 </r>
       <r>    3.2671    0.0000 </r>
       <r>    3.2672    0.0000 </r>
       <r>    3.2674    0.0000 </r>
       <r>    3.9710    0.0000 </r>
       <r>    4.4344    0.0000 </r>
       <r>    5.0322    0.0000 </r>
       <r>    5.0323    0.0000 </r>
       <r>    5.1588    0.0000 </r>
       <r>    5.2727    0.0000 </r>
       <r>    5.2727    0.0000 </r>
       <r>    5.2732    0.0000 </r>
       <r>    5.2732    0.0000 </r>
       <r>    5.6057    0.0000 </r>
       <r>    5.6103    0.0000 </r>
       <r>    5.6103    0.0000 </r>
       <r>    5.6137    0.0000 </r>
       <r>    5.6137    0.0000 </r>
       <r>    5.6158    0.0000 </r>
       <r>    6.0474    0.0000 </r>
       <r>    6.0475    0.0000 </r>
       <r>    6.0479    0.0000 </r>
       <r>    6.0479    0.0000 </r>
       <r>    6.2116    0.0000 </r>
       <r>    6.9233    0.0000 </r>
       <r>    6.9337    0.0000 </r>
       <r>    6.9752    0.0000 </r>
       <r>    6.9753    0.0000 </r>
       <r>    6.9812    0.0000 </r>
       <r>    7.3481    0.0000 </r>
       <r>    7.3792    0.0000 </r>
       <r>    7.3809    0.0000 </r>
      </set>
      <set comment="kpoint 2">
       <r>  -11.7952    1.0000 </r>
       <r>   -7.7750    1.0000 </r>
       <r>   -6.4716    1.0000 </r>
       <r>   -6.0831    1.0000 </r>
       <r>   -5.3698    1.0000 </r>
       <r>   -5.3697    1.0000 </r>
       <r>   -4.9818    1.0000 </r>
       <r>   -4.8751    1.0000 </r>
       <r>   -4.4617    1.0000 </r>
       <r>   -4.4617    1.0000 </r>
       <r>   -4.4312    1.0000 </r>
       <r>   -4.4311    1.0000 </r>
       <r>   -4.3044    1.0000 </r>
       <r>   -4.2534    1.0000 </r>
       <r>   -4.2453    1.0000 </r>
       <r>   -4.2448    1.0000 </r>
       <r>   -4.2441    1.0000 </r>
       <r>   -4.0527    1.0000 </r>
       <r>   -4.0213    1.0000 </r>
       <r>   -4.0213    1.0000 </r>
       <r>   -3.7777    1.0000 </r>
       <r>   -3.6622    1.0000 </r>
       <r>   -3.5948    1.0000 </r>
       <r>   -3.5948    1.0000 </r>
       <r>   -3.5828    1.0000 </r>
       <r>   -3.5827    1.0000 </r>
       <r>   -3.5797    1.0000 </r>
       <r>   -3.4476    1.0000 </r>
       <r>   -3.4476    1.0000 </r>
       <r>   -3.4416    1.0000 </r>
       <r>   -3.4416    1.0000 </r>
       <r>   -3.4176    1.0000 </r>
       <r>   -3.4176    1.0000 </r>
       <r>   -3.4075    1.0000 </r>
       <r>   -3.3593    1.0000 </r>
       <r>   -3.2773    1.0000 </r>
       <r>   -3.2772    1.0000 </r>
       <r>   -3.1932    1.0000 </r>
       <r>   -3.1932    1.0000 </r>
       <r>   -3.1705    1.0000 </r>
       <r>   -3.1705    1.0000 </r>
       <r>   -3.0892    1.0000 </r>
       <r>   -3.0891    1.0000 </r>
       <r>   -3.0092    1.0000 </r>
       <r>   -2.9929    1.0000 </r>
       <r>   -2.9929    1.0000 </r>
       <r>   -2.9547    1.0000 </r>
       <r>   -2.9187    1.0000 </r>
       <r>   -2.9187    1.0000 </r>
       <r>   -2.9060    1.0000 </r>
       <r>   -2.9060    1.0000 </r>
       <r>   -2.7820    1.0000 </r>
       <r>   -2.7820    1.0000 </r>
       <r>   -2.7355    1.0000 </r>
       <r>   -2.7354    1.0000 </r>
       <r>   -2.7163    1.0000 </r>
       <r>   -2.7163    1.0000 </r>
       <r>   -2.5855    1.0000 </r>
       <r>   -2.5825    1.0000 </r>
       <r>   -2.5825    1.0000 </r>
       <r>   -2.5591    1.0000 </r>
       <r>   -2.4048    1.0000 </r>
       <r>   -2.4048    1.0000 </r>
       <r>   -2.3602    1.0000 </r>
       <r>   -2.3602    1.0000 </r>
       <r>   -2.3380    1.0000 </r>
       <r>   -2.3059    1.0000 </r>
       <r>   -2.2829    1.0000 </r>
       <r>   -2.2829    1.0000 </r>
       <r>   -2.2799    1.0000 </r>
       <r>   -2.2799    1.0000 </r>
       <r>   -2.2736    1.0000 </r>
       <r>   -2.1651    1.0000 </r>
       <r>   -2.1651    1.0000 </r>
       <r>   -2.1498    1.0000 </r>
       <r>   -2.1279    1.0000 </r>
       <r>   -2.0986    1.0000 </r>
       <r>   -2.0251    1.0000 </r>
       <r>   -2.0088    1.0000 </r>
       <r>   -2.0088    1.0000 </r>
       <r>   -1.9828    1.0000 </r>
       <r>   -1.9827    1.0000 </r>
       <r>   -1.9798    1.0000 </r>
       <r>   -1.9658    1.0000 </r>
       <r>   -1.9557    1.0000 </r>
       <r>   -1.9323    1.0000 </r>
       <r>   -1.9322    1.0000 </r>
       <r>   -1.9179    1.0000 </r>
       <r>   -1.9104    1.0000 </r>
       <r>   -1.8966    1.0000 </r>
       <r>   -1.8965    1.0000 </r>
       <r>   -1.8669    1.0000 </r>
       <r>   -1.8653    1.0000 </r>
       <r>   -1.8601    1.0000 </r>
       <r>   -1.8601    1.0000 </r>
       <r>   -1.8557    1.0000 </r>
       <r>   -1.8129    1.0000 </r>
       <r>   -1.8128    1.0000 </r>
       <r>   -1.7792    1.0000 </r>
       <r>   -1.7680    1.0000 </r>
       <r>   -1.7680    1.0000 </r>
       <r>   -1.7378    1.0000 </r>
       <r>   -1.7347    1.0000 </r>
       <r>   -1.7346    1.0000 </r>
       <r>   -1.7197    1.0000 </r>
       <r>   -1.6915    1.0000 </r>
       <r>   -1.6914    1.0000 </r>
       <r>   -1.6878    1.0000 </r>
       <r>   -1.6775    1.0000 </r>
       <r>   -1.6656    1.0000 </r>
       <r>   -1.6655    1.0000 </r>
       <r>   -1.6481    1.0000 </r>
       <r>   -1.6481    1.0000 </r>
       <r>   -1.6143    1.0000 </r>
       <r>   -1.5907    1.0000 </r>
       <r>   -1.5907    1.0000 </r>
       <r>   -1.4639    1.0000 </r>
       <r>   -1.3812    1.0000 </r>
       <r>   -1.3648    1.0000 </r>
       <r>   -1.3500    1.0000 </r>
       <r>   -1.3500    1.0000 </r>
       <r>   -1.3055    1.0000 </r>
       <r>   -1.3054    1.0000 </r>
       <r>   -1.2952    1.0000 </r>
       <r>   -1.2951    1.0000 </r>
       <r>   -1.2941    1.0000 </r>
       <r>   -1.2929    1.0000 </r>
       <r>   -1.2929    1.0000 </r>
       <r>   -1.2360    1.0000 </r>
       <r>   -1.2079    1.0000 </r>
       <r>   -1.2079    1.0000 </r>
       <r>   -1.0964    1.0000 </r>
       <r>   -1.0945    1.0000 </r>
       <r>   -1.0879    1.0000 </r>
       <r>   -1.0876    1.0000 </r>
       <r>   -1.0875    1.0000 </r>
       <r>   -1.0090    1.0000 </r>
       <r>   -1.0090    1.0000 </r>
       <r>   -1.0060    1.0000 </r>
       <r>   -0.9677    1.0000 </r>
       <r>   -0.9677    1.0000 </r>
       <r>   -0.9412    1.0000 </r>
       <r>   -0.9030    1.0000 </r>
       <r>   -0.8931    1.0000 </r>
       <r>   -0.8930    1.0000 </r>
       <r>   -0.8808    1.0000 </r>
       <r>   -0.8673    1.0000 </r>
       <r>   -0.8648    1.0000 </r>
       <r>   -0.8647    1.0000 </r>
       <r>   -0.8232    1.0000 </r>
       <r>   -0.8182    1.0000 </r>
       <r>   -0.8182    1.0000 </r>
       <r>   -0.8000    1.0000 </r>
       <r>   -0.7637    0.9999 </r>
       <r>   -0.7636    0.9999 </r>
       <r>   -0.7618    0.9999 </r>
       <r>   -0.7617    0.9999 </r>
       <r>   -0.7426    0.9999 </r>
       <r>   -0.7324    0.9999 </r>
       <r>   -0.7323    0.9999 </r>
       <r>   -0.6920    0.9999 </r>
       <r>   -0.6615    0.9998 </r>
       <r>   -0.6615    0.9998 </r>
       <r>   -0.5929    0.9996 </r>
       <r>   -0.5634    0.9995 </r>
       <r>   -0.5634    0.9995 </r>
       <r>   -0.5575    0.9995 </r>
       <r>   -0.5574    0.9995 </r>
       <r>   -0.5510    0.9994 </r>
       <r>   -0.5356    0.9993 </r>
       <r>   -0.5344    0.9993 </r>
       <r>   -0.5343    0.9993 </r>
       <r>   -0.4921    0.9990 </r>
       <r>   -0.4921    0.9990 </r>
       <r>   -0.4907    0.9990 </r>
       <r>   -0.4857    0.9989 </r>
       <r>   -0.4856    0.9989 </r>
       <r>   -0.4683    0.9987 </r>
       <r>   -0.4683    0.9987 </r>
       <r>   -0.4580    0.9986 </r>
       <r>   -0.4580    0.9986 </r>
       <r>   -0.4514    0.9985 </r>
       <r>   -0.4269    0.9981 </r>
       <r>   -0.4269    0.9981 </r>
       <r>   -0.3889    0.9972 </r>
       <r>   -0.3888    0.9972 </r>
       <r>   -0.3790    0.9969 </r>
       <r>   -0.3788    0.9969 </r>
       <r>   -0.3686    0.9965 </r>
       <r>   -0.3686    0.9965 </r>
       <r>   -0.3615    0.9963 </r>
       <r>   -0.2878    0.9923 </r>
       <r>   -0.2625    0.9901 </r>
       <r>   -0.0271    0.9045 </r>
       <r>    0.0427    0.8249 </r>
       <r>    0.0428    0.8249 </r>
       <r>    0.1236    0.6772 </r>
       <r>    0.2527    0.3660 </r>
       <r>    0.3666    0.1560 </r>
       <r>    0.3666    0.1560 </r>
       <r>    0.6331    0.0127 </r>
       <r>    0.6331    0.0127 </r>
       <r>    0.6726    0.0086 </r>
       <r>    1.2949    0.0000 </r>
       <r>    1.7440    0.0000 </r>
       <r>    1.7440    0.0000 </r>
       <r>    2.0553    0.0000 </r>
       <r>    2.0804    0.0000 </r>
       <r>    2.8210    0.0000 </r>
       <r>    2.8210    0.0000 </r>
       <r>    3.0054    0.0000 </r>
       <r>    3.0054    0.0000 </r>
       <r>    3.8084    0.0000 </r>
       <r>    3.8084    0.0000 </r>
       <r>    3.9552    0.0000 </r>
       <r>    4.0882    0.0000 </r>
       <r>    4.0883    0.0000 </r>
       <r>    4.1315    0.0000 </r>
       <r>    4.2045    0.0000 </r>
       <r>    4.6295    0.0000 </r>
       <r>    4.9542    0.0000 </r>
       <r>    4.9550    0.0000 </r>
       <r>    4.9907    0.0000 </r>
       <r>    4.9908    0.0000 </r>
       <r>    5.3959    0.0000 </r>
       <r>    5.6912    0.0000 </r>
       <r>    5.6912    0.0000 </r>
       <r>    5.9977    0.0000 </r>
       <r>    6.1579    0.0000 </r>
       <r>    6.3819    0.0000 </r>
       <r>    6.5014    0.0000 </r>
       <r>    6.6228    0.0000 </r>
       <r>    6.6288    0.0000 </r>
       <r>    6.6882    0.0000 </r>
       <r>    6.7513    0.0000 </r>
       <r>    6.9167    0.0000 </r>
       <r>    6.9914    0.0000 </r>
       <r>    6.9915    0.0000 </r>
       <r>    6.9948    0.0000 </r>
       <r>    7.0438    0.0000 </r>
       <r>    7.4308    0.0000 </r>
      </set>
      <set comment="kpoint 3">
       <r>  -11.7950    1.0000 </r>
       <r>   -7.1025    1.0000 </r>
       <r>   -7.1025    1.0000 </r>
       <r>   -5.8464    1.0000 </r>
       <r>   -5.8463    1.0000 </r>
       <r>   -5.5096    1.0000 </r>
       <r>   -5.5096    1.0000 </r>
       <r>   -4.5168    1.0000 </r>
       <r>   -4.5168    1.0000 </r>
       <r>   -4.3326    1.0000 </r>
       <r>   -4.3325    1.0000 </r>
       <r>   -4.2454    1.0000 </r>
       <r>   -4.2440    1.0000 </r>
       <r>   -4.2434    1.0000 </r>
       <r>   -4.1621    1.0000 </r>
       <r>   -4.0294    1.0000 </r>
       <r>   -3.8738    1.0000 </r>
       <r>   -3.8737    1.0000 </r>
       <r>   -3.8736    1.0000 </r>
       <r>   -3.8736    1.0000 </r>
       <r>   -3.8280    1.0000 </r>
       <r>   -3.8279    1.0000 </r>
       <r>   -3.7139    1.0000 </r>
       <r>   -3.7139    1.0000 </r>
       <r>   -3.7138    1.0000 </r>
       <r>   -3.7138    1.0000 </r>
       <r>   -3.6646    1.0000 </r>
       <r>   -3.5420    1.0000 </r>
       <r>   -3.4969    1.0000 </r>
       <r>   -3.4900    1.0000 </r>
       <r>   -3.4900    1.0000 </r>
       <r>   -3.3742    1.0000 </r>
       <r>   -3.3742    1.0000 </r>
       <r>   -3.3742    1.0000 </r>
       <r>   -3.3741    1.0000 </r>
       <r>   -3.3517    1.0000 </r>
       <r>   -3.3517    1.0000 </r>
       <r>   -3.3517    1.0000 </r>
       <r>   -3.3516    1.0000 </r>
       <r>   -3.1144    1.0000 </r>
       <r>   -3.1144    1.0000 </r>
       <r>   -3.0717    1.0000 </r>
       <r>   -3.0309    1.0000 </r>
       <r>   -3.0309    1.0000 </r>
       <r>   -3.0308    1.0000 </r>
       <r>   -3.0308    1.0000 </r>
       <r>   -2.9125    1.0000 </r>
       <r>   -2.9124    1.0000 </r>
       <r>   -2.8670    1.0000 </r>
       <r>   -2.8669    1.0000 </r>
       <r>   -2.8669    1.0000 </r>
       <r>   -2.8668    1.0000 </r>
       <r>   -2.7336    1.0000 </r>
       <r>   -2.7335    1.0000 </r>
       <r>   -2.6217    1.0000 </r>
       <r>   -2.6216    1.0000 </r>
       <r>   -2.6013    1.0000 </r>
       <r>   -2.6013    1.0000 </r>
       <r>   -2.5539    1.0000 </r>
       <r>   -2.5539    1.0000 </r>
       <r>   -2.5539    1.0000 </r>
       <r>   -2.5538    1.0000 </r>
       <r>   -2.4630    1.0000 </r>
       <r>   -2.4630    1.0000 </r>
       <r>   -2.3403    1.0000 </r>
       <r>   -2.3361    1.0000 </r>
       <r>   -2.3358    1.0000 </r>
       <r>   -2.3310    1.0000 </r>
       <r>   -2.3309    1.0000 </r>
       <r>   -2.2692    1.0000 </r>
       <r>   -2.2691    1.0000 </r>
       <r>   -2.2691    1.0000 </r>
       <r>   -2.2690    1.0000 </r>
       <r>   -2.2167    1.0000 </r>
       <r>   -2.2166    1.0000 </r>
       <r>   -2.2024    1.0000 </r>
       <r>   -2.2023    1.0000 </r>
       <r>   -2.1534    1.0000 </r>
       <r>   -2.1442    1.0000 </r>
       <r>   -2.1441    1.0000 </r>
       <r>   -2.1441    1.0000 </r>
       <r>   -2.1440    1.0000 </r>
       <r>   -2.0393    1.0000 </r>
       <r>   -2.0391    1.0000 </r>
       <r>   -2.0152    1.0000 </r>
       <r>   -2.0151    1.0000 </r>
       <r>   -1.9714    1.0000 </r>
       <r>   -1.9712    1.0000 </r>
       <r>   -1.9541    1.0000 </r>
       <r>   -1.9539    1.0000 </r>
       <r>   -1.9473    1.0000 </r>
       <r>   -1.8761    1.0000 </r>
       <r>   -1.8760    1.0000 </r>
       <r>   -1.8760    1.0000 </r>
       <r>   -1.8758    1.0000 </r>
       <r>   -1.8377    1.0000 </r>
       <r>   -1.8376    1.0000 </r>
       <r>   -1.7372    1.0000 </r>
       <r>   -1.7371    1.0000 </r>
       <r>   -1.7370    1.0000 </r>
       <r>   -1.7369    1.0000 </r>
       <r>   -1.7369    1.0000 </r>
       <r>   -1.7368    1.0000 </r>
       <r>   -1.7287    1.0000 </r>
       <r>   -1.6930    1.0000 </r>
       <r>   -1.6929    1.0000 </r>
       <r>   -1.6647    1.0000 </r>
       <r>   -1.6647    1.0000 </r>
       <r>   -1.5675    1.0000 </r>
       <r>   -1.5675    1.0000 </r>
       <r>   -1.5155    1.0000 </r>
       <r>   -1.5155    1.0000 </r>
       <r>   -1.5155    1.0000 </r>
       <r>   -1.5154    1.0000 </r>
       <r>   -1.5129    1.0000 </r>
       <r>   -1.5128    1.0000 </r>
       <r>   -1.4400    1.0000 </r>
       <r>   -1.4398    1.0000 </r>
       <r>   -1.4129    1.0000 </r>
       <r>   -1.4128    1.0000 </r>
       <r>   -1.4127    1.0000 </r>
       <r>   -1.4127    1.0000 </r>
       <r>   -1.3784    1.0000 </r>
       <r>   -1.3667    1.0000 </r>
       <r>   -1.3666    1.0000 </r>
       <r>   -1.3591    1.0000 </r>
       <r>   -1.3589    1.0000 </r>
       <r>   -1.3582    1.0000 </r>
       <r>   -1.3091    1.0000 </r>
       <r>   -1.3090    1.0000 </r>
       <r>   -1.2835    1.0000 </r>
       <r>   -1.2834    1.0000 </r>
       <r>   -1.2406    1.0000 </r>
       <r>   -1.2406    1.0000 </r>
       <r>   -1.2405    1.0000 </r>
       <r>   -1.2405    1.0000 </r>
       <r>   -1.1293    1.0000 </r>
       <r>   -1.1292    1.0000 </r>
       <r>   -1.0432    1.0000 </r>
       <r>   -1.0432    1.0000 </r>
       <r>   -1.0188    1.0000 </r>
       <r>   -1.0186    1.0000 </r>
       <r>   -0.8906    1.0000 </r>
       <r>   -0.8905    1.0000 </r>
       <r>   -0.8905    1.0000 </r>
       <r>   -0.8904    1.0000 </r>
       <r>   -0.8703    1.0000 </r>
       <r>   -0.8703    1.0000 </r>
       <r>   -0.8271    1.0000 </r>
       <r>   -0.8271    1.0000 </r>
       <r>   -0.8271    1.0000 </r>
       <r>   -0.8271    1.0000 </r>
       <r>   -0.7821    0.9999 </r>
       <r>   -0.7820    0.9999 </r>
       <r>   -0.7417    0.9999 </r>
       <r>   -0.7417    0.9999 </r>
       <r>   -0.7244    0.9999 </r>
       <r>   -0.7244    0.9999 </r>
       <r>   -0.7243    0.9999 </r>
       <r>   -0.7243    0.9999 </r>
       <r>   -0.7229    0.9999 </r>
       <r>   -0.7180    0.9999 </r>
       <r>   -0.6397    0.9998 </r>
       <r>   -0.6396    0.9998 </r>
       <r>   -0.5423    0.9994 </r>
       <r>   -0.5422    0.9994 </r>
       <r>   -0.5210    0.9992 </r>
       <r>   -0.5209    0.9992 </r>
       <r>   -0.5209    0.9992 </r>
       <r>   -0.5209    0.9992 </r>
       <r>   -0.5135    0.9992 </r>
       <r>   -0.5135    0.9992 </r>
       <r>   -0.4931    0.9990 </r>
       <r>   -0.4680    0.9987 </r>
       <r>   -0.4679    0.9987 </r>
       <r>   -0.4648    0.9987 </r>
       <r>   -0.4647    0.9987 </r>
       <r>   -0.4016    0.9975 </r>
       <r>   -0.3865    0.9971 </r>
       <r>   -0.3865    0.9971 </r>
       <r>   -0.3864    0.9971 </r>
       <r>   -0.3864    0.9971 </r>
       <r>   -0.3825    0.9970 </r>
       <r>   -0.3705    0.9966 </r>
       <r>   -0.3704    0.9966 </r>
       <r>   -0.3678    0.9965 </r>
       <r>   -0.3677    0.9965 </r>
       <r>   -0.3282    0.9948 </r>
       <r>   -0.3027    0.9933 </r>
       <r>   -0.3026    0.9933 </r>
       <r>   -0.3026    0.9933 </r>
       <r>   -0.3026    0.9933 </r>
       <r>   -0.1760    0.9767 </r>
       <r>   -0.1708    0.9755 </r>
       <r>    0.5989    0.0178 </r>
       <r>    0.5990    0.0178 </r>
       <r>    1.0120    0.0003 </r>
       <r>    1.0864    0.0001 </r>
       <r>    1.0869    0.0001 </r>
       <r>    1.2753    0.0000 </r>
       <r>    1.2754    0.0000 </r>
       <r>    1.2754    0.0000 </r>
       <r>    1.2754    0.0000 </r>
       <r>    1.8820    0.0000 </r>
       <r>    1.8820    0.0000 </r>
       <r>    1.8821    0.0000 </r>
       <r>    1.8821    0.0000 </r>
       <r>    2.1403    0.0000 </r>
       <r>    2.5036    0.0000 </r>
       <r>    2.5061    0.0000 </r>
       <r>    2.6844    0.0000 </r>
       <r>    2.6844    0.0000 </r>
       <r>    2.7674    0.0000 </r>
       <r>    2.9063    0.0000 </r>
       <r>    3.2511    0.0000 </r>
       <r>    3.2511    0.0000 </r>
       <r>    3.2512    0.0000 </r>
       <r>    3.2512    0.0000 </r>
       <r>    4.7016    0.0000 </r>
       <r>    4.7324    0.0000 </r>
       <r>    4.7545    0.0000 </r>
       <r>    5.1051    0.0000 </r>
       <r>    5.1583    0.0000 </r>
       <r>    5.1591    0.0000 </r>
       <r>    5.1592    0.0000 </r>
       <r>    5.1593    0.0000 </r>
       <r>    5.1641    0.0000 </r>
       <r>    5.2723    0.0000 </r>
       <r>    6.0165    0.0000 </r>
       <r>    6.0992    0.0000 </r>
       <r>    6.1619    0.0000 </r>
       <r>    6.5391    0.0000 </r>
       <r>    6.6452    0.0000 </r>
       <r>    6.6833    0.0000 </r>
[...]
       <r>   -1.7174    1.0000 </r>
       <r>   -1.6013    1.0000 </r>
       <r>   -1.6012    1.0000 </r>
       <r>   -1.5949    1.0000 </r>
       <r>   -1.5948    1.0000 </r>
       <r>   -1.5717    1.0000 </r>
       <r>   -1.5576    1.0000 </r>
       <r>   -1.5303    1.0000 </r>
       <r>   -1.5301    1.0000 </r>
       <r>   -1.5285    1.0000 </r>
       <r>   -1.5285    1.0000 </r>
       <r>   -1.4783    1.0000 </r>
       <r>   -1.4782    1.0000 </r>
       <r>   -1.4455    1.0000 </r>
       <r>   -1.4454    1.0000 </r>
       <r>   -1.4017    1.0000 </r>
       <r>   -1.3928    1.0000 </r>
       <r>   -1.3859    1.0000 </r>
       <r>   -1.3859    1.0000 </r>
       <r>   -1.3802    1.0000 </r>
       <r>   -1.3802    1.0000 </r>
       <r>   -1.3448    1.0000 </r>
       <r>   -1.3169    1.0000 </r>
       <r>   -1.3001    1.0000 </r>
       <r>   -1.2916    1.0000 </r>
       <r>   -1.2520    1.0000 </r>
       <r>   -1.2519    1.0000 </r>
       <r>   -1.2371    1.0000 </r>
       <r>   -1.2111    1.0000 </r>
       <r>   -1.2110    1.0000 </r>
       <r>   -1.1992    1.0000 </r>
       <r>   -1.1861    1.0000 </r>
       <r>   -1.1861    1.0000 </r>
       <r>   -1.1545    1.0000 </r>
       <r>   -1.1471    1.0000 </r>
       <r>   -1.1402    1.0000 </r>
       <r>   -1.0722    1.0000 </r>
       <r>   -1.0549    1.0000 </r>
       <r>   -1.0549    1.0000 </r>
       <r>   -1.0454    1.0000 </r>
       <r>   -1.0453    1.0000 </r>
       <r>   -1.0390    1.0000 </r>
       <r>   -1.0389    1.0000 </r>
       <r>   -0.9170    1.0000 </r>
       <r>   -0.9065    1.0000 </r>
       <r>   -0.9064    1.0000 </r>
       <r>   -0.8253    1.0000 </r>
       <r>   -0.8252    1.0000 </r>
       <r>   -0.7935    1.0000 </r>
       <r>   -0.7708    0.9999 </r>
       <r>   -0.7503    0.9999 </r>
       <r>   -0.7503    0.9999 </r>
       <r>   -0.7329    0.9999 </r>
       <r>   -0.7274    0.9999 </r>
       <r>   -0.7185    0.9999 </r>
       <r>   -0.7033    0.9999 </r>
       <r>   -0.7032    0.9999 </r>
       <r>   -0.7008    0.9999 </r>
       <r>   -0.7008    0.9999 </r>
       <r>   -0.6786    0.9998 </r>
       <r>   -0.6329    0.9998 </r>
       <r>   -0.6329    0.9998 </r>
       <r>   -0.5758    0.9996 </r>
       <r>   -0.5707    0.9995 </r>
       <r>   -0.5046    0.9991 </r>
       <r>   -0.5045    0.9991 </r>
       <r>   -0.4003    0.9975 </r>
       <r>   -0.4002    0.9975 </r>
       <r>   -0.3910    0.9972 </r>
       <r>   -0.3909    0.9972 </r>
       <r>   -0.3834    0.9970 </r>
       <r>   -0.3748    0.9967 </r>
       <r>   -0.3515    0.9959 </r>
       <r>   -0.3166    0.9942 </r>
       <r>   -0.3165    0.9942 </r>
       <r>   -0.3033    0.9934 </r>
       <r>   -0.3033    0.9934 </r>
       <r>   -0.2660    0.9904 </r>
       <r>   -0.2214    0.9851 </r>
       <r>   -0.2214    0.9851 </r>
       <r>   -0.1994    0.9815 </r>
       <r>   -0.1994    0.9815 </r>
       <r>   -0.1836    0.9784 </r>
       <r>   -0.1835    0.9784 </r>
       <r>   -0.1730    0.9760 </r>
       <r>   -0.1518    0.9706 </r>
       <r>   -0.1516    0.9705 </r>
       <r>   -0.1459    0.9688 </r>
       <r>   -0.1089    0.9555 </r>
       <r>   -0.1088    0.9555 </r>
       <r>   -0.0710    0.9363 </r>
       <r>   -0.0597    0.9292 </r>
       <r>    0.0210    0.8542 </r>
       <r>    0.0210    0.8541 </r>
       <r>    0.1217    0.6816 </r>
       <r>    0.1217    0.6815 </r>
       <r>    0.1543    0.6069 </r>
       <r>    0.1544    0.6068 </r>
       <r>    0.1834    0.5359 </r>
       <r>    0.2206    0.4432 </r>
       <r>    0.2577    0.3545 </r>
       <r>    0.2577    0.3544 </r>
       <r>    0.2722    0.3220 </r>
       <r>    0.2778    0.3100 </r>
       <r>    0.2871    0.2904 </r>
       <r>    0.2872    0.2902 </r>
       <r>    0.2942    0.2759 </r>
       <r>    0.2943    0.2757 </r>
       <r>    0.2975    0.2695 </r>
       <r>    0.3237    0.2211 </r>
       <r>    0.3419    0.1913 </r>
       <r>    0.3419    0.1913 </r>
       <r>    0.3915    0.1259 </r>
       <r>    0.4000    0.1169 </r>
       <r>    0.4000    0.1168 </r>
       <r>    0.4273    0.0915 </r>
       <r>    0.4273    0.0915 </r>
       <r>    0.4584    0.0687 </r>
       <r>    0.5118    0.0415 </r>
       <r>    0.5219    0.0376 </r>
       <r>    0.5219    0.0376 </r>
       <r>    0.5795    0.0215 </r>
       <r>    0.5796    0.0215 </r>
       <r>    0.7989    0.0024 </r>
       <r>    0.7990    0.0024 </r>
       <r>    0.9791    0.0004 </r>
       <r>    0.9792    0.0004 </r>
       <r>    1.2230    0.0000 </r>
       <r>    1.5046    0.0000 </r>
       <r>    1.5046    0.0000 </r>
       <r>    1.8189    0.0000 </r>
       <r>    2.0427    0.0000 </r>
       <r>    2.0431    0.0000 </r>
       <r>    2.0550    0.0000 </r>
       <r>    2.0551    0.0000 </r>
       <r>    2.1877    0.0000 </r>
       <r>    2.1878    0.0000 </r>
       <r>    2.3121    0.0000 </r>
       <r>    2.3488    0.0000 </r>
       <r>    2.8500    0.0000 </r>
       <r>    3.0404    0.0000 </r>
       <r>    3.0404    0.0000 </r>
       <r>    3.4833    0.0000 </r>
       <r>    3.5942    0.0000 </r>
       <r>    3.5972    0.0000 </r>
       <r>    3.5981    0.0000 </r>
       <r>    4.0128    0.0000 </r>
       <r>    4.0822    0.0000 </r>
       <r>    4.0823    0.0000 </r>
       <r>    4.1857    0.0000 </r>
       <r>    4.1859    0.0000 </r>
       <r>    4.4237    0.0000 </r>
       <r>    4.5500    0.0000 </r>
       <r>    4.9919    0.0000 </r>
       <r>    5.4314    0.0000 </r>
       <r>    5.5525    0.0000 </r>
       <r>    5.7043    0.0000 </r>
       <r>    5.7348    0.0000 </r>
       <r>    5.8329    0.0000 </r>
       <r>    5.8551    0.0000 </r>
       <r>    6.4531    0.0000 </r>
       <r>    6.4547    0.0000 </r>
       <r>    6.5892    0.0000 </r>
       <r>    6.5894    0.0000 </r>
       <r>    6.6665    0.0000 </r>
       <r>    6.7040    0.0000 </r>
       <r>    6.7475    0.0000 </r>
       <r>    6.7824    0.0000 </r>
       <r>    7.1283    0.0000 </r>
       <r>    7.1287    0.0000 </r>
       <r>    7.2494    0.0000 </r>
      </set>
      <set comment="kpoint 10">
       <r>  -11.7951    1.0000 </r>
       <r>   -7.1396    1.0000 </r>
       <r>   -7.1396    1.0000 </r>
       <r>   -5.8672    1.0000 </r>
       <r>   -5.8672    1.0000 </r>
       <r>   -5.5119    1.0000 </r>
       <r>   -5.5119    1.0000 </r>
       <r>   -4.4560    1.0000 </r>
       <r>   -4.4559    1.0000 </r>
       <r>   -4.2458    1.0000 </r>
       <r>   -4.2443    1.0000 </r>
       <r>   -4.2436    1.0000 </r>
       <r>   -4.2387    1.0000 </r>
       <r>   -4.2387    1.0000 </r>
       <r>   -3.7309    1.0000 </r>
       <r>   -3.6896    1.0000 </r>
       <r>   -3.5530    1.0000 </r>
       <r>   -3.5529    1.0000 </r>
       <r>   -3.5529    1.0000 </r>
       <r>   -3.5529    1.0000 </r>
       <r>   -3.4398    1.0000 </r>
       <r>   -3.4398    1.0000 </r>
       <r>   -3.3692    1.0000 </r>
       <r>   -3.3692    1.0000 </r>
       <r>   -3.3692    1.0000 </r>
       <r>   -3.3691    1.0000 </r>
       <r>   -3.2645    1.0000 </r>
       <r>   -3.2645    1.0000 </r>
       <r>   -3.1433    1.0000 </r>
       <r>   -3.1117    1.0000 </r>
       <r>   -2.9993    1.0000 </r>
       <r>   -2.9993    1.0000 </r>
       <r>   -2.9992    1.0000 </r>
       <r>   -2.9992    1.0000 </r>
       <r>   -2.9918    1.0000 </r>
       <r>   -2.7475    1.0000 </r>
       <r>   -2.7474    1.0000 </r>
       <r>   -2.7474    1.0000 </r>
       <r>   -2.7473    1.0000 </r>
       <r>   -2.5971    1.0000 </r>
       <r>   -2.5971    1.0000 </r>
       <r>   -2.5545    1.0000 </r>
       <r>   -2.5545    1.0000 </r>
       <r>   -2.5544    1.0000 </r>
       <r>   -2.5544    1.0000 </r>
       <r>   -2.5454    1.0000 </r>
       <r>   -2.2951    1.0000 </r>
       <r>   -2.2951    1.0000 </r>
       <r>   -2.2951    1.0000 </r>
       <r>   -2.2950    1.0000 </r>
       <r>   -2.2819    1.0000 </r>
       <r>   -2.2819    1.0000 </r>
       <r>   -2.1213    1.0000 </r>
       <r>   -2.1212    1.0000 </r>
       <r>   -2.1023    1.0000 </r>
       <r>   -2.1022    1.0000 </r>
       <r>   -2.0969    1.0000 </r>
       <r>   -2.0968    1.0000 </r>
       <r>   -2.0968    1.0000 </r>
       <r>   -2.0967    1.0000 </r>
       <r>   -2.0157    1.0000 </r>
       <r>   -2.0156    1.0000 </r>
       <r>   -1.8938    1.0000 </r>
       <r>   -1.7885    1.0000 </r>
       <r>   -1.7885    1.0000 </r>
       <r>   -1.7838    1.0000 </r>
       <r>   -1.7838    1.0000 </r>
       <r>   -1.7733    1.0000 </r>
       <r>   -1.7733    1.0000 </r>
       <r>   -1.7067    1.0000 </r>
       <r>   -1.7066    1.0000 </r>
       <r>   -1.6623    1.0000 </r>
       <r>   -1.6623    1.0000 </r>
       <r>   -1.6623    1.0000 </r>
       <r>   -1.6622    1.0000 </r>
       <r>   -1.6265    1.0000 </r>
       <r>   -1.6264    1.0000 </r>
       <r>   -1.5753    1.0000 </r>
       <r>   -1.5649    1.0000 </r>
       <r>   -1.5649    1.0000 </r>
       <r>   -1.5649    1.0000 </r>
       <r>   -1.5648    1.0000 </r>
       <r>   -1.4229    1.0000 </r>
       <r>   -1.4228    1.0000 </r>
       <r>   -1.4208    1.0000 </r>
       <r>   -1.4208    1.0000 </r>
       <r>   -1.3926    1.0000 </r>
       <r>   -1.3926    1.0000 </r>
       <r>   -1.3287    1.0000 </r>
       <r>   -1.3286    1.0000 </r>
       <r>   -1.3285    1.0000 </r>
       <r>   -1.3284    1.0000 </r>
       <r>   -1.3138    1.0000 </r>
       <r>   -1.3117    1.0000 </r>
       <r>   -1.3117    1.0000 </r>
       <r>   -1.1734    1.0000 </r>
       <r>   -1.1734    1.0000 </r>
       <r>   -1.1733    1.0000 </r>
       <r>   -1.1733    1.0000 </r>
       <r>   -1.1688    1.0000 </r>
       <r>   -1.0894    1.0000 </r>
       <r>   -1.0894    1.0000 </r>
       <r>   -1.0880    1.0000 </r>
       <r>   -1.0880    1.0000 </r>
       <r>   -1.0741    1.0000 </r>
       <r>   -1.0741    1.0000 </r>
       <r>   -1.0270    1.0000 </r>
       <r>   -1.0269    1.0000 </r>
       <r>   -1.0131    1.0000 </r>
       <r>   -1.0130    1.0000 </r>
       <r>   -0.9740    1.0000 </r>
       <r>   -0.9740    1.0000 </r>
       <r>   -0.9739    1.0000 </r>
       <r>   -0.9739    1.0000 </r>
       <r>   -0.8694    1.0000 </r>
       <r>   -0.8693    1.0000 </r>
       <r>   -0.8614    1.0000 </r>
       <r>   -0.8614    1.0000 </r>
       <r>   -0.8614    1.0000 </r>
       <r>   -0.8613    1.0000 </r>
       <r>   -0.8395    1.0000 </r>
       <r>   -0.8394    1.0000 </r>
       <r>   -0.7950    1.0000 </r>
       <r>   -0.7598    0.9999 </r>
       <r>   -0.7284    0.9999 </r>
       <r>   -0.7284    0.9999 </r>
       <r>   -0.7115    0.9999 </r>
       <r>   -0.7115    0.9999 </r>
       <r>   -0.7048    0.9999 </r>
       <r>   -0.7047    0.9999 </r>
       <r>   -0.6665    0.9998 </r>
       <r>   -0.6664    0.9998 </r>
       <r>   -0.6663    0.9998 </r>
       <r>   -0.6663    0.9998 </r>
       <r>   -0.6134    0.9997 </r>
       <r>   -0.6133    0.9997 </r>
       <r>   -0.4980    0.9990 </r>
       <r>   -0.4979    0.9990 </r>
       <r>   -0.4408    0.9983 </r>
       <r>   -0.4408    0.9983 </r>
       <r>   -0.4000    0.9975 </r>
       <r>   -0.3999    0.9975 </r>
       <r>   -0.2949    0.9928 </r>
       <r>   -0.2948    0.9928 </r>
       <r>   -0.2948    0.9928 </r>
       <r>   -0.2948    0.9928 </r>
       <r>   -0.2600    0.9898 </r>
       <r>   -0.2600    0.9898 </r>
       <r>   -0.2196    0.9848 </r>
       <r>   -0.2195    0.9848 </r>
       <r>   -0.1458    0.9688 </r>
       <r>   -0.1457    0.9688 </r>
       <r>   -0.1457    0.9688 </r>
       <r>   -0.1457    0.9688 </r>
       <r>   -0.1118    0.9567 </r>
       <r>   -0.0382    0.9137 </r>
       <r>   -0.0382    0.9137 </r>
       <r>   -0.0382    0.9137 </r>
       <r>   -0.0381    0.9136 </r>
       <r>   -0.0280    0.9053 </r>
       <r>    0.0058    0.8720 </r>
       <r>    0.0059    0.8720 </r>
       <r>    0.0243    0.8500 </r>
       <r>    0.0243    0.8500 </r>
       <r>    0.1027    0.7213 </r>
       <r>    0.1027    0.7211 </r>
       <r>    0.1415    0.6369 </r>
       <r>    0.1416    0.6368 </r>
       <r>    0.1920    0.5145 </r>
       <r>    0.1920    0.5143 </r>
       <r>    0.2047    0.4826 </r>
       <r>    0.2322    0.4147 </r>
       <r>    0.2323    0.4144 </r>
       <r>    0.2325    0.4141 </r>
       <r>    0.2325    0.4140 </r>
       <r>    0.2325    0.4139 </r>
       <r>    0.2326    0.4139 </r>
       <r>    0.2357    0.4063 </r>
       <r>    0.3020    0.2607 </r>
       <r>    0.3020    0.2606 </r>
       <r>    0.3534    0.1741 </r>
       <r>    0.3535    0.1740 </r>
       <r>    0.3607    0.1639 </r>
       <r>    0.3745    0.1459 </r>
       <r>    0.3745    0.1458 </r>
       <r>    0.3745    0.1458 </r>
       <r>    0.3746    0.1458 </r>
       <r>    0.4641    0.0652 </r>
       <r>    0.5129    0.0410 </r>
       <r>    0.5129    0.0410 </r>
       <r>    0.5130    0.0410 </r>
       <r>    0.5130    0.0410 </r>
       <r>    0.5805    0.0213 </r>
       <r>    0.6095    0.0160 </r>
       <r>    1.0931    0.0001 </r>
       <r>    1.0932    0.0001 </r>
       <r>    1.1576    0.0001 </r>
       <r>    1.4415    0.0000 </r>
       <r>    1.4418    0.0000 </r>
       <r>    1.7559    0.0000 </r>
       <r>    1.7560    0.0000 </r>
       <r>    1.7560    0.0000 </r>
       <r>    1.7560    0.0000 </r>
       <r>    2.2424    0.0000 </r>
       <r>    2.2425    0.0000 </r>
       <r>    2.2425    0.0000 </r>
       <r>    2.2425    0.0000 </r>
       <r>    2.3594    0.0000 </r>
       <r>    2.6931    0.0000 </r>
       <r>    2.6954    0.0000 </r>
       <r>    2.9521    0.0000 </r>
       <r>    2.9522    0.0000 </r>
       <r>    2.9889    0.0000 </r>
       <r>    2.9952    0.0000 </r>
       <r>    3.4597    0.0000 </r>
       <r>    3.4597    0.0000 </r>
       <r>    3.4598    0.0000 </r>
       <r>    3.4599    0.0000 </r>
       <r>    4.6445    0.0000 </r>
       <r>    4.8807    0.0000 </r>
       <r>    4.8812    0.0000 </r>
       <r>    4.9784    0.0000 </r>
       <r>    5.1480    0.0000 </r>
       <r>    5.2397    0.0000 </r>
       <r>    5.3090    0.0000 </r>
       <r>    5.3091    0.0000 </r>
       <r>    5.3092    0.0000 </r>
       <r>    5.3093    0.0000 </r>
       <r>    5.9885    0.0000 </r>
       <r>    6.1445    0.0000 </r>
       <r>    6.4381    0.0000 </r>
       <r>    6.4609    0.0000 </r>
       <r>    6.5637    0.0000 </r>
       <r>    6.6972    0.0000 </r>
       <r>    6.7201    0.0000 </r>
       <r>    6.8302    0.0000 </r>
       <r>    6.9214    0.0000 </r>
       <r>    7.1177    0.0000 </r>
       <r>    7.1183    0.0000 </r>
       <r>    7.1183    0.0000 </r>
       <r>    7.1184    0.0000 </r>
      </set>
     </set>
    </set>
   </array>
  </eigenvalues>
  <separator name="orbital magnetization" >
   <v name="MAGDIPOLOUT">      0.00000000      0.00000000      0.00000000</v>
  </separator>
 </calculation>
 <structure name="finalpos" >
  <crystal>
   <varray name="basis" >
    <v>       7.54318933       0.00000000       0.00000000 </v>
    <v>      -3.77159466       6.53259358       0.00000000 </v>
    <v>       0.00000000       0.00000000      22.11523000 </v>
   </varray>
   <i name="volume">   1089.76312573 </i>
   <varray name="rec_basis" >
    <v>       0.13256992       0.07653928       0.00000000 </v>
    <v>       0.00000000       0.15307856       0.00000000 </v>
    <v>       0.00000000       0.00000000       0.04521771 </v>
   </varray>
  </crystal>
  <varray name="positions" >
   <v>       0.00000000       0.00000000       0.00000000 </v>
   <v>       0.00000000       0.33333333       0.00000000 </v>
   <v>       0.00000000       0.66666667       0.00000000 </v>
   <v>       0.33333333       0.00000000       0.00000000 </v>
   <v>       0.33333333       0.33333333       0.00000000 </v>
   <v>       0.33333333       0.66666667       0.00000000 </v>
   <v>       0.66666667       0.00000000       0.00000000 </v>
   <v>       0.66666667       0.33333333       0.00000000 </v>
   <v>       0.66666667       0.66666667       0.00000000 </v>
   <v>       0.44444444       0.22222222       0.09193664 </v>
   <v>       0.44444444       0.55555556       0.09193664 </v>
   <v>       0.44444444       0.88888889       0.09193664 </v>
   <v>       0.77777778       0.22222222       0.09193664 </v>
   <v>       0.77777778       0.55555556       0.09193664 </v>
   <v>       0.77777778       0.88888889       0.09193664 </v>
   <v>       0.11111111       0.22222222       0.09193664 </v>
   <v>       0.11111111       0.55555556       0.09193664 </v>
   <v>       0.11111111       0.88888889       0.09193664 </v>
   <v>       0.22222406       0.11110901       0.18464877 </v>
   <v>       0.22222939       0.44443757       0.18464967 </v>
   <v>       0.22223197       0.77778449       0.18464108 </v>
   <v>       0.55554664       0.11109982       0.18463973 </v>
   <v>       0.55554137       0.44442838       0.18464832 </v>
   <v>       0.55555079       0.77777837       0.18464018 </v>
   <v>       0.88889733       0.11110442       0.18464289 </v>
   <v>       0.88889455       0.44444063       0.18464199 </v>
   <v>       0.88890530       0.77779062       0.18464244 </v>
   <v>       0.00001563       0.00000864       0.27654246 </v>
   <v>       0.00000690       0.33332090       0.27653160 </v>
   <v>       0.00001708       0.66667242       0.27652392 </v>
   <v>       0.33333534       0.00000306       0.27654065 </v>
   <v>       0.33332011       0.33331172       0.27655647 </v>
   <v>       0.33333315       0.66666630       0.27653386 </v>
   <v>       0.66667137       0.00000098       0.27652708 </v>
   <v>       0.66666264       0.33331325       0.27652392 </v>
   <v>       0.66667190       0.66667089       0.27651668 </v>
   <v>       0.41246587       0.49160323       0.65478963 </v>
   <v>       0.41246587       0.25416596       0.65478963 </v>
   <v>       0.17502860       0.25416596       0.65478963 </v>
   <v>       0.33332011       0.33331172       0.58866446 </v>
   <v>       0.33332011       0.33331172       0.63825834 </v>
  </varray>
  <varray name="selective"  type="logical" >
   <v type="logical" >  F  F  F </v>
   <v type="logical" >  F  F  F </v>
   <v type="logical" >  F  F  F </v>
   <v type="logical" >  F  F  F </v>
   <v type="logical" >  F  F  F </v>
   <v type="logical" >  F  F  F </v>
   <v type="logical" >  F  F  F </v>
   <v type="logical" >  F  F  F </v>
   <v type="logical" >  F  F  F </v>
   <v type="logical" >  F  F  F </v>
   <v type="logical" >  F  F  F </v>
   <v type="logical" >  F  F  F </v>
   <v type="logical" >  F  F  F </v>
   <v type="logical" >  F  F  F </v>
   <v type="logical" >  F  F  F </v>
   <v type="logical" >  F  F  F </v>
   <v type="logical" >  F  F  F </v>
   <v type="logical" >  F  F  F </v>
   <v type="logical" >  T  T  T </v>
   <v type="logical" >  T  T  T </v>
   <v type="logical" >  T  T  T </v>
   <v type="logical" >  T  T  T </v>
   <v type="logical" >  T  T  T </v>
   <v type="logical" >  T  T  T </v>
   <v type="logical" >  T  T  T </v>
   <v type="logical" >  T  T  T </v>
   <v type="logical" >  T  T  T </v>
   <v type="logical" >  T  T  T </v>
   <v type="logical" >  T  T  T </v>
   <v type="logical" >  T  T  T </v>
   <v type="logical" >  T  T  T </v>
   <v type="logical" >  T  T  T </v>
   <v type="logical" >  T  T  T </v>
   <v type="logical" >  T  T  T </v>
   <v type="logical" >  T  T  T </v>
   <v type="logical" >  T  T  T </v>
   <v type="logical" >  T  T  T </v>
   <v type="logical" >  T  T  T </v>
   <v type="logical" >  T  T  T </v>
   <v type="logical" >  T  T  T </v>
   <v type="logical" >  T  T  T </v>
  </varray>
  <nose>
   <v>      -3.00000000       0.00000000       0.00010000       0.00010000 </v>
  </nose>
 </structure>
</modeling>
