Ni(111) + CH4, PAW 3x3 s.u.c. 4L - Step 
           1
     7.543189    0.000000    0.000000
    -3.771595    6.532594    0.000000
     0.000000    0.000000   22.115230
   Ni   H    C 
  36   4   1
Direct configuration=     1
   0.00000000  0.00000000  0.00000000
   0.00000000  0.33333333  0.00000000
   0.00000000  0.66666667  0.00000000
   0.33333333  0.00000000  0.00000000
   0.33333333  0.33333333  0.00000000
   0.33333333  0.66666667  0.00000000
   0.66666667  0.00000000  0.00000000
   0.66666667  0.33333333  0.00000000
   0.66666667  0.66666667  0.00000000
   0.44444444  0.22222222  0.09193664
   0.44444444  0.55555556  0.09193664
   0.44444444  0.88888889  0.09193664
   0.77777778  0.22222222  0.09193664
   0.77777778  0.55555556  0.09193664
   0.77777778  0.88888889  0.09193664
   0.11111111  0.22222222  0.09193664
   0.11111111  0.55555556  0.09193664
   0.11111111  0.88888889  0.09193664
   0.22222406  0.11110901  0.18464877
   0.22222939  0.44443757  0.18464967
   0.22223197  0.77778449  0.18464108
   0.55554664  0.11109982  0.18463973
   0.55554137  0.44442838  0.18464832
   0.55555079  0.77777837  0.18464018
   0.88889733  0.11110442  0.18464289
   0.88889455  0.44444063  0.18464199
   0.88890530  0.77779062  0.18464244
   0.00001563  0.00000864  0.27654246
   0.00000690  0.33332090  0.27653160
   0.00001708  0.66667242  0.27652392
   0.33333534  0.00000306  0.27654065
   0.33332011  0.33331172  0.27655647
   0.33333315  0.66666630  0.27653386
   0.66667137  0.00000098  0.27652708
   0.66666264  0.33331325  0.27652392
   0.66667190  0.66667089  0.27651668
   0.41246587  0.49160323  0.65478963
   0.41246587  0.25416596  0.65478963
   0.17502860  0.25416596  0.65478963
   0.33332011  0.33331172  0.58866446
   0.33332011  0.33331172  0.63825834
